Variables = "x","y", "Velocity_x", "Velocity_y", "Velocity_whole value", "Pressure", "Absolute pressure", "Total pressure"
Zone i=12, j=12
 0.0000000e+000  0.0000000e+000  0.0000000e+000  0.0000000e+000  0.0000000e+000  1.2394551e-002  1.2394551e-002  1.2394551e-002 
 5.0000001e-002  0.0000000e+000  0.0000000e+000  0.0000000e+000  0.0000000e+000  1.1993134e-002  1.1993134e-002  1.1993134e-002 
 1.5000001e-001  0.0000000e+000  0.0000000e+000  0.0000000e+000  0.0000000e+000  1.1190303e-002  1.1190303e-002  1.1190303e-002 
 2.5000006e-001  0.0000000e+000  0.0000000e+000  0.0000000e+000  0.0000000e+000  1.0627773e-002  1.0627773e-002  1.0627773e-002 
 3.5000008e-001  0.0000000e+000  0.0000000e+000  0.0000000e+000  0.0000000e+000  1.0848443e-002  1.0848443e-002  1.0848443e-002 
 4.5000011e-001  0.0000000e+000  0.0000000e+000  0.0000000e+000  0.0000000e+000  1.0528151e-002  1.0528151e-002  1.0528151e-002 
 5.5000007e-001  0.0000000e+000  0.0000000e+000  0.0000000e+000  0.0000000e+000  1.1148677e-002  1.1148677e-002  1.1148677e-002 
 6.5000015e-001  0.0000000e+000  0.0000000e+000  0.0000000e+000  0.0000000e+000  1.4722372e-002  1.4722372e-002  1.4722372e-002 
 7.5000024e-001  0.0000000e+000  0.0000000e+000  0.0000000e+000  0.0000000e+000  2.1890705e-002  2.1890705e-002  2.1890705e-002 
 8.5000020e-001  0.0000000e+000  0.0000000e+000  0.0000000e+000  0.0000000e+000  2.6694663e-002  2.6694663e-002  2.6694663e-002 
 9.5000011e-001  0.0000000e+000  0.0000000e+000  0.0000000e+000  0.0000000e+000  2.7206205e-002  2.7206205e-002  2.7206205e-002 
 1.0000000e+000  0.0000000e+000  0.0000000e+000  0.0000000e+000  0.0000000e+000  2.7461976e-002  2.7461976e-002  2.7461976e-002 
 0.0000000e+000  5.0000001e-002  0.0000000e+000  0.0000000e+000  0.0000000e+000  1.3291247e-002  1.3291247e-002  1.3291247e-002 
 5.0000001e-002  5.0000001e-002  8.8281883e-003 -1.5173051e-002  1.7554440e-002  1.2827278e-002  1.2827278e-002  1.2981357e-002 
 1.5000001e-001  5.0000001e-002  9.5512914e-003 -1.1263326e-002  1.4767859e-002  1.1899341e-002  1.1899341e-002  1.2008386e-002 
 2.5000006e-001  5.0000001e-002 -7.0546814e-003  9.5820464e-003  1.1898913e-002  1.0752580e-002  1.0752580e-002  1.0823372e-002 
 3.5000008e-001  5.0000001e-002 -5.4954115e-002  3.5597913e-002  6.5476455e-002  9.9412417e-003  9.9412417e-003  1.2084825e-002 
 4.5000011e-001  5.0000001e-002 -1.1511114e-001  4.1198634e-002  1.2226161e-001  8.8240001e-003  8.8240001e-003  1.6297951e-002 
 5.5000007e-001  5.0000001e-002 -1.4631745e-001  2.8962972e-002  1.4915647e-001  9.0856059e-003  9.0856059e-003  2.0209432e-002 
 6.5000015e-001  5.0000001e-002 -1.4924446e-001  1.1646511e-002  1.4969820e-001  1.2672262e-002  1.2672262e-002  2.3877038e-002 
 7.5000024e-001  5.0000001e-002 -1.2017057e-001 -4.0862989e-003  1.2024003e-001  1.9708620e-002  1.9708620e-002  2.6937453e-002 
 8.5000020e-001  5.0000001e-002 -6.7472428e-002 -1.5594464e-002  6.9251105e-002  2.5353016e-002  2.5353016e-002  2.7750874e-002 
 9.5000011e-001  5.0000001e-002 -1.9930393e-002 -3.0817550e-003  2.0167245e-002  2.6285386e-002  2.6285386e-002  2.6488744e-002 
 1.0000000e+000  5.0000001e-002  0.0000000e+000  0.0000000e+000  0.0000000e+000  2.6751570e-002  2.6751570e-002  2.6751570e-002 
 0.0000000e+000  1.5000001e-001  0.0000000e+000  0.0000000e+000  0.0000000e+000  1.5084639e-002  1.5084639e-002  1.5084639e-002 
 5.0000001e-002  1.5000001e-001 -4.6690786e-003  7.8840408e-004  4.7351746e-003  1.4495566e-002  1.4495566e-002  1.4506777e-002 
 1.5000001e-001  1.5000001e-001 -5.0592478e-002  2.9095337e-002  5.8362123e-002  1.3317418e-002  1.3317418e-002  1.5020487e-002 
 2.5000006e-001  1.5000001e-001 -1.0645338e-001  6.2408246e-002  1.2339818e-001  1.1002196e-002  1.1002196e-002  1.8615752e-002 
 3.5000008e-001  1.5000001e-001 -1.6061540e-001  7.4202724e-002  1.7692754e-001  8.1268391e-003  8.1268391e-003  2.3778515e-002 
 4.5000011e-001  1.5000001e-001 -1.9609682e-001  5.7404753e-002  2.0432638e-001  5.4156980e-003  5.4156980e-003  2.6290333e-002 
 5.5000007e-001  1.5000001e-001 -2.0938241e-001  1.6478689e-002  2.1002986e-001  4.9594636e-003  4.9594636e-003  2.7015734e-002 
 6.5000015e-001  1.5000001e-001 -2.0124201e-001 -2.7659843e-002  2.0313399e-001  8.5720439e-003  8.5720439e-003  2.9203752e-002 
 7.5000024e-001  1.5000001e-001 -1.6431421e-001 -6.9242083e-002  1.7830767e-001  1.5344449e-002  1.5344449e-002  3.1241262e-002 
 8.5000020e-001  1.5000001e-001 -1.0626203e-001 -9.2199817e-002  1.4068556e-001  2.2669721e-002  2.2669721e-002  3.2565933e-002 
 9.5000011e-001  1.5000001e-001 -4.1248925e-002 -6.2457107e-002  7.4848942e-002  2.4443749e-002  2.4443749e-002  2.7244931e-002 
 1.0000000e+000  1.5000001e-001  0.0000000e+000  0.0000000e+000  0.0000000e+000  2.5330761e-002  2.5330761e-002  2.5330761e-002 
 0.0000000e+000  2.5000006e-001  0.0000000e+000  0.0000000e+000  0.0000000e+000  1.5111315e-002  1.5111315e-002  1.5111315e-002 
 5.0000001e-002  2.5000006e-001 -1.0514837e-002  4.1461051e-002  4.2773597e-002  1.4300223e-002  1.4300223e-002  1.5215014e-002 
 1.5000001e-001  2.5000006e-001 -6.7850873e-002  8.3803706e-002  1.0782765e-001  1.2678040e-002  1.2678040e-002  1.8491441e-002 
 2.5000006e-001  2.5000006e-001 -1.2068100e-001  1.1404777e-001  1.6604456e-001  8.2152132e-003  8.2152132e-003  2.2000613e-002 
 3.5000008e-001  2.5000006e-001 -1.6436918e-001  1.1526009e-001  2.0075387e-001  1.4169337e-003  1.4169337e-003  2.1567993e-002 
 4.5000011e-001  2.5000006e-001 -1.8932652e-001  7.8238033e-002  2.0485537e-001 -4.5413212e-003 -4.5413212e-003  1.6441541e-002 
 5.5000007e-001  2.5000006e-001 -1.9569904e-001  2.0440668e-002  1.9676365e-001 -7.1735750e-003 -7.1735750e-003  1.2184392e-002 
 6.5000015e-001  2.5000006e-001 -1.9016838e-001 -4.4327773e-002  1.9526640e-001 -4.7428980e-003 -4.7428980e-003  1.4321584e-002 
 7.5000024e-001  2.5000006e-001 -1.6735457e-001 -1.1211877e-001  2.0144024e-001  2.4272101e-003  2.4272101e-003  2.2716295e-002 
 8.5000020e-001  2.5000006e-001 -1.1700944e-001 -1.6323100e-001  2.0083717e-001  1.3424587e-002  1.3424587e-002  3.3592373e-002 
 9.5000011e-001  2.5000006e-001 -6.0997766e-002 -1.5421166e-001  1.6583715e-001  1.7704345e-002  1.7704345e-002  3.1455327e-002 
 1.0000000e+000  2.5000006e-001  0.0000000e+000  0.0000000e+000  0.0000000e+000  1.9844221e-002  1.9844221e-002  1.9844221e-002 
 0.0000000e+000  3.5000008e-001  0.0000000e+000  0.0000000e+000  0.0000000e+000  1.2909431e-002  1.2909431e-002  1.2909431e-002 
 5.0000001e-002  3.5000008e-001 -6.2536052e-003  8.0933012e-002  8.1174254e-002  1.1797558e-002  1.1797558e-002  1.5092188e-002 
 1.5000001e-001  3.5000008e-001 -5.8313955e-002  1.3136058e-001  1.4372237e-001  9.5738117e-003  9.5738117e-003  1.9901870e-002 
 2.5000006e-001  3.5000008e-001 -9.7354412e-002  1.5430473e-001  1.8244953e-001  2.6647307e-003  2.6647307e-003  1.9308645e-002 
 3.5000008e-001  3.5000008e-001 -1.2521973e-001  1.4300618e-001  1.9008090e-001 -7.0519694e-003 -7.0519694e-003  1.1013404e-002 
 4.5000011e-001  3.5000008e-001 -1.3510352e-001  8.9941181e-002  1.6230336e-001 -1.5310163e-002 -1.5310163e-002 -2.1389737e-003 
 5.5000007e-001  3.5000008e-001 -1.3418910e-001  2.1527430e-002  1.3590491e-001 -1.9028820e-002 -1.9028820e-002 -9.7937481e-003 
 6.5000015e-001  3.5000008e-001 -1.2931415e-001 -5.1027723e-002  1.3901791e-001 -1.7485911e-002 -1.7485911e-002 -7.8229215e-003 
 7.5000024e-001  3.5000008e-001 -1.2416656e-001 -1.3260077e-001  1.8165985e-001 -1.1245399e-002 -1.1245399e-002  5.2547501e-003 
 8.5000020e-001  3.5000008e-001 -9.9237978e-002 -2.1549210e-001  2.3724465e-001  1.9872493e-004  1.9872493e-004  2.8341236e-002 
 9.5000011e-001  3.5000008e-001 -6.1158668e-002 -2.4022514e-001  2.4788807e-001  6.0813441e-003  6.0813441e-003  3.6805592e-002 
 1.0000000e+000  3.5000008e-001  0.0000000e+000  0.0000000e+000  0.0000000e+000  9.0226494e-003  9.0226494e-003  9.0226494e-003 
 0.0000000e+000  4.5000011e-001  0.0000000e+000  0.0000000e+000  0.0000000e+000  9.0197762e-003  9.0197762e-003  9.0197762e-003 
 5.0000001e-002  4.5000011e-001  3.5197572e-003  1.1111988e-001  1.1117561e-001  7.8413188e-003  7.8413188e-003  1.4021327e-002 
 1.5000001e-001  4.5000011e-001 -3.2633249e-002  1.6614172e-001  1.6931628e-001  5.4844045e-003  5.4844045e-003  1.9818405e-002 
 2.5000006e-001  4.5000011e-001 -5.3503182e-002  1.7985190e-001  1.8764141e-001 -2.6234663e-003 -2.6234663e-003  1.4981182e-002 
 3.5000008e-001  4.5000011e-001 -6.5985665e-002  1.5551899e-001  1.6893864e-001 -1.3321331e-002 -1.3321331e-002  9.4880193e-004 
 4.5000011e-001  4.5000011e-001 -6.5573253e-002  9.2049107e-002  1.1301721e-001 -2.2274738e-002 -2.2274738e-002 -1.5888294e-002 
 5.5000007e-001  4.5000011e-001 -6.1879527e-002  2.0684982e-002  6.5245263e-002 -2.6087355e-002 -2.6087355e-002 -2.3958882e-002 
 6.5000015e-001  4.5000011e-001 -5.9897434e-002 -5.1067889e-002  7.8712337e-002 -2.4940643e-002 -2.4940643e-002 -2.1842828e-002 
 7.5000024e-001  4.5000011e-001 -6.3468099e-002 -1.2972960e-001  1.4442287e-001 -2.0053901e-002 -2.0053901e-002 -9.6249171e-003 
 8.5000020e-001  4.5000011e-001 -6.4467028e-002 -2.3676907e-001  2.4538864e-001 -1.0818693e-002 -1.0818693e-002  1.9289101e-002 
 9.5000011e-001  4.5000011e-001 -5.0341260e-002 -3.0727515e-001  3.1137156e-001 -3.9345021e-003 -3.9345021e-003  4.4541627e-002 
 1.0000000e+000  4.5000011e-001  0.0000000e+000  0.0000000e+000  0.0000000e+000 -4.9241085e-004 -4.9241085e-004 -4.9241085e-004 
 0.0000000e+000  5.5000007e-001  0.0000000e+000  0.0000000e+000  0.0000000e+000  5.2710902e-003  5.2710902e-003  5.2710902e-003 
 5.0000001e-002  5.5000007e-001  1.2452827e-002  1.1641642e-001  1.1708055e-001  4.3054270e-003  4.3054270e-003  1.1159355e-002 
 1.5000001e-001  5.5000007e-001 -1.2422418e-003  1.8034090e-001  1.8034518e-001  2.3740989e-003  2.3740989e-003  1.8636290e-002 
 2.5000006e-001  5.5000007e-001 -1.4835566e-003  1.8751213e-001  1.8751800e-001 -5.4087718e-003 -5.4087718e-003  1.2172728e-002 
 3.5000008e-001  5.5000007e-001 -5.6779076e-004  1.5670083e-001  1.5670186e-001 -1.5590874e-002 -1.5590874e-002 -3.3131365e-003 
 4.5000011e-001  5.5000007e-001  4.4879643e-003  9.1790155e-002  9.1899805e-002 -2.4310879e-002 -2.4310879e-002 -2.0088091e-002 
 5.5000007e-001  5.5000007e-001  2.1751046e-003  2.0602318e-002  2.0716818e-002 -2.8030228e-002 -2.8030228e-002 -2.7815634e-002 
 6.5000015e-001  5.5000007e-001  7.6234847e-004 -4.9120940e-002  4.9126856e-002 -2.6823718e-002 -2.6823718e-002 -2.5616994e-002 
 7.5000024e-001  5.5000007e-001 -9.8619470e-003 -1.1860802e-001  1.1901731e-001 -2.2632154e-002 -2.2632154e-002 -1.5549594e-002 
 8.5000020e-001  5.5000007e-001 -3.2008052e-002 -2.3528257e-001  2.3744980e-001 -1.6293019e-002 -1.6293019e-002  1.1898182e-002 
 9.5000011e-001  5.5000007e-001 -3.6116280e-002 -3.5228938e-001  3.5413584e-001 -8.5637672e-003 -8.5637672e-003  5.4142330e-002 
 1.0000000e+000  5.5000007e-001  0.0000000e+000  0.0000000e+000  0.0000000e+000 -4.6991459e-003 -4.6991459e-003 -4.6991459e-003 
 0.0000000e+000  6.5000015e-001  0.0000000e+000  0.0000000e+000  0.0000000e+000  3.6305632e-003  3.6305632e-003  3.6305632e-003 
 5.0000001e-002  6.5000015e-001  1.9632865e-002  1.0674783e-001  1.0853823e-001  2.8624195e-003  2.8624195e-003  8.7526934e-003 
 1.5000001e-001  6.5000015e-001  2.4162009e-002  1.7768006e-001  1.7931539e-001  1.3261316e-003  1.3261316e-003  1.7403135e-002 
 2.5000006e-001  6.5000015e-001  4.0739603e-002  1.8078567e-001  1.8531911e-001 -4.5033894e-003 -4.5033894e-003  1.2668198e-002 
 3.5000008e-001  6.5000015e-001  5.4052312e-002  1.5035039e-001  1.5977138e-001 -1.3511627e-002 -1.3511627e-002 -7.4818061e-004 
 4.5000011e-001  6.5000015e-001  6.5924428e-002  9.0503804e-002  1.1196861e-001 -2.1867258e-002 -2.1867258e-002 -1.5598774e-002 
 5.5000007e-001  6.5000015e-001  6.5203756e-002  2.3726100e-002  6.9386296e-002 -2.5723478e-002 -2.5723478e-002 -2.3316249e-002 
 6.5000015e-001  6.5000015e-001  5.9061766e-002 -4.0042244e-002  7.1355961e-002 -2.4563173e-002 -2.4563173e-002 -2.2017336e-002 
 7.5000024e-001  6.5000015e-001  3.7327420e-002 -9.7541340e-002  1.0443969e-001 -2.0056225e-002 -2.0056225e-002 -1.4602400e-002 
 8.5000020e-001  6.5000015e-001 -6.5775507e-004 -2.0812382e-001  2.0812486e-001 -1.4339366e-002 -1.4339366e-002  7.3186122e-003 
 9.5000011e-001  6.5000015e-001 -1.8403865e-002 -3.7584916e-001  3.7629947e-001 -5.1979092e-003 -5.1979092e-003  6.5602735e-002 
 1.0000000e+000  6.5000015e-001  0.0000000e+000  0.0000000e+000  0.0000000e+000 -6.2718696e-004 -6.2718696e-004 -6.2718696e-004 
 0.0000000e+000  7.5000024e-001  0.0000000e+000  0.0000000e+000  0.0000000e+000  1.9900799e-003  1.9900799e-003  1.9900799e-003 
 5.0000001e-002  7.5000024e-001  1.3294484e-002  7.4939236e-002  7.6109342e-002  2.3566871e-003  2.3566871e-003  5.2530034e-003 
 1.5000001e-001  7.5000024e-001  3.9936099e-002  1.5400107e-001  1.5909500e-001  3.0899020e-003  3.0899020e-003  1.5745513e-002 
 2.5000006e-001  7.5000024e-001  7.3210709e-002  1.5584697e-001  1.7218620e-001 -1.6328675e-004 -1.6328675e-004  1.4660756e-002 
 3.5000008e-001  7.5000024e-001  1.0887656e-001  1.3166964e-001  1.7085373e-001 -7.7748573e-003 -7.7748573e-003  6.8206419e-003 
 4.5000011e-001  7.5000024e-001  1.3295488e-001  8.6235285e-002  1.5847248e-001 -1.5534352e-002 -1.5534352e-002 -2.9775894e-003 
 5.5000007e-001  7.5000024e-001  1.3506338e-001  3.4832921e-002  1.3948280e-001 -1.9643852e-002 -1.9643852e-002 -9.9161277e-003 
 6.5000015e-001  7.5000024e-001  1.2080666e-001 -1.5393417e-002  1.2178344e-001 -1.8561833e-002 -1.8561833e-002 -1.1146230e-002 
 7.5000024e-001  7.5000024e-001  8.3464824e-002 -6.0918536e-002  1.0333172e-001 -1.3378103e-002 -1.3378103e-002 -8.0393804e-003 
 8.5000020e-001  7.5000024e-001  3.5464969e-002 -1.7276686e-001  1.7636937e-001 -5.7500429e-003 -5.7500429e-003  9.8030334e-003 
 9.5000011e-001  7.5000024e-001  5.7341857e-003 -3.7800294e-001  3.7804642e-001  8.0329264e-003  8.0329264e-003  7.9492480e-002 
 1.0000000e+000  7.5000024e-001  0.0000000e+000  0.0000000e+000  0.0000000e+000  1.4924402e-002  1.4924402e-002  1.4924402e-002 
 0.0000000e+000  8.5000020e-001  0.0000000e+000  0.0000000e+000  0.0000000e+000  1.7157000e-003  1.7157000e-003  1.7157000e-003 
 5.0000001e-002  8.5000020e-001 -3.5216201e-002  6.9487192e-002  7.7901542e-002  3.5249435e-003  3.5249435e-003  6.5592690e-003 
 1.5000001e-001  8.5000020e-001 -8.3709619e-004  1.1251666e-001  1.1251978e-001  7.1434304e-003  7.1434304e-003  1.3473781e-002 
 2.5000006e-001  8.5000020e-001  5.5603683e-002  1.0998876e-001  1.2324487e-001  6.3406862e-003  6.3406862e-003  1.3935335e-002 
 3.5000008e-001  8.5000020e-001  1.0705337e-001  9.5371731e-002  1.4337431e-001  4.8540343e-005  4.8540343e-005  1.0326636e-002 
 4.5000011e-001  8.5000020e-001  1.4788108e-001  6.9526546e-002  1.6340977e-001 -7.8521064e-003 -7.8521064e-003  5.4992703e-003 
 5.5000007e-001  8.5000020e-001  1.6218546e-001  4.0127881e-002  1.6707595e-001 -1.2861794e-002 -1.2861794e-002  1.0953913e-003 
 6.5000015e-001  8.5000020e-001  1.5804662e-001  7.6240129e-003  1.5823039e-001 -1.2673909e-002 -1.2673909e-002 -1.5547931e-004 
 7.5000024e-001  8.5000020e-001  1.3305233e-001 -2.8110413e-002  1.3598941e-001 -6.5918667e-003 -6.5918667e-003  2.6546929e-003 
 8.5000020e-001  8.5000020e-001  1.0063770e-001 -1.3680938e-001  1.6983743e-001  7.0481328e-003  7.0481328e-003  2.1470509e-002 
 9.5000011e-001  8.5000020e-001  5.3724837e-002 -3.3747676e-001  3.4172639e-001  3.9886430e-002  3.9886430e-002  9.8274894e-002 
 1.0000000e+000  8.5000020e-001  0.0000000e+000  0.0000000e+000  0.0000000e+000  5.6305557e-002  5.6305557e-002  5.6305557e-002 
 0.0000000e+000  9.5000011e-001  0.0000000e+000  0.0000000e+000  0.0000000e+000 -4.3316660e-003 -4.3316660e-003 -4.3316660e-003 
 5.0000001e-002  9.5000011e-001  6.7259416e-002  1.0284849e-001  1.2288874e-001  1.5060743e-003  1.5060743e-003  9.0568950e-003 
 1.5000001e-001  9.5000011e-001  1.3008317e-001  5.9580710e-002  1.4307863e-001  1.3181555e-002  1.3181555e-002  2.3417301e-002 
 2.5000006e-001  9.5000011e-001  2.1092615e-001  3.7088811e-002  2.1416213e-001  1.1631371e-002  1.1631371e-002  3.4564082e-002 
 3.5000008e-001  9.5000011e-001  2.8135088e-001  2.9753624e-002  2.8291976e-001  3.8876843e-003  3.8876843e-003  4.3909483e-002 
 4.5000011e-001  9.5000011e-001  3.4061685e-001  2.3576219e-002  3.4143180e-001 -4.8920535e-003 -4.8920535e-003  5.3395785e-002 
 5.5000007e-001  9.5000011e-001  3.7873232e-001  1.7357271e-002  3.7912986e-001 -1.0340623e-002 -1.0340623e-002  6.1529100e-002 
 6.5000015e-001  9.5000011e-001  4.0202758e-001  9.4832405e-003  4.0213940e-001 -8.6223576e-003 -8.6223576e-003  7.2235696e-002 
 7.5000024e-001  9.5000011e-001  3.9175400e-001 -8.2184104e-003  3.9184019e-001  3.0699824e-003  3.0699824e-003  7.9839349e-002 
 8.5000020e-001  9.5000011e-001  3.6936140e-001 -4.0476888e-002  3.7157264e-001  3.7251256e-002  3.7251256e-002  1.0628437e-001 
 9.5000011e-001  9.5000011e-001  2.1937518e-001 -2.1797574e-001  3.0925539e-001  9.6048728e-002  9.6048728e-002  1.4386818e-001 
 1.0000000e+000  9.5000011e-001  0.0000000e+000  0.0000000e+000  0.0000000e+000  1.2544742e-001  1.2544742e-001  1.2544742e-001 
 0.0000000e+000  1.0000000e+000  5.0000000e-001  0.0000000e+000  5.0000000e-001 -7.3553454e-003 -7.3553454e-003  2.4264465e-001 
 5.0000001e-002  1.0000000e+000  1.0000000e+000  0.0000000e+000  1.0000000e+000  4.9664098e-004  4.9664098e-004  5.0049663e-001 
 1.5000001e-001  1.0000000e+000  1.0000000e+000  0.0000000e+000  1.0000000e+000  1.6200613e-002  1.6200613e-002  5.1620060e-001 
 2.5000006e-001  1.0000000e+000  1.0000000e+000  0.0000000e+000  1.0000000e+000  1.4276709e-002  1.4276709e-002  5.1427668e-001 
 3.5000008e-001  1.0000000e+000  1.0000000e+000  0.0000000e+000  1.0000000e+000  5.8072545e-003  5.8072545e-003  5.0580728e-001 
 4.5000011e-001  1.0000000e+000  1.0000000e+000  0.0000000e+000  1.0000000e+000 -3.4120290e-003 -3.4120290e-003  4.9658796e-001 
 5.5000007e-001  1.0000000e+000  1.0000000e+000  0.0000000e+000  1.0000000e+000 -9.0800403e-003 -9.0800403e-003  4.9091995e-001 
 6.5000015e-001  1.0000000e+000  1.0000000e+000  0.0000000e+000  1.0000000e+000 -6.5965839e-003 -6.5965839e-003  4.9340340e-001 
 7.5000024e-001  1.0000000e+000  1.0000000e+000  0.0000000e+000  1.0000000e+000  7.9008993e-003  7.9008993e-003  5.0790089e-001 
 8.5000020e-001  1.0000000e+000  1.0000000e+000  0.0000000e+000  1.0000000e+000  5.2352801e-002  5.2352801e-002  5.5235279e-001 
 9.5000011e-001  1.0000000e+000  1.0000000e+000  0.0000000e+000  1.0000000e+000  1.2412985e-001  1.2412985e-001  6.2412983e-001 
 1.0000000e+000  1.0000000e+000  5.0000000e-001  0.0000000e+000  5.0000000e-001  1.6001832e-001  1.6001832e-001  4.1001832e-001 
