Variables = "x","y", "Velocity_x", "Velocity_y", "Velocity_whole value", "Pressure", "Absolute pressure", "Total pressure"
Zone i=22, j=22
 0.0000000e+000  0.0000000e+000  0.0000000e+000  0.0000000e+000  0.0000000e+000  2.1636898e-002  2.1636898e-002  2.1636898e-002 
 1.5686335e-002  0.0000000e+000  0.0000000e+000  0.0000000e+000  0.0000000e+000  2.1635722e-002  2.1635722e-002  2.1635722e-002 
 4.8627645e-002  0.0000000e+000  0.0000000e+000  0.0000000e+000  0.0000000e+000  2.1633254e-002  2.1633254e-002  2.1633254e-002 
 8.4863111e-002  0.0000000e+000  0.0000000e+000  0.0000000e+000  0.0000000e+000  2.1451028e-002  2.1451028e-002  2.1451028e-002 
 1.2472210e-001  0.0000000e+000  0.0000000e+000  0.0000000e+000  0.0000000e+000  2.1082357e-002  2.1082357e-002  2.1082357e-002 
 1.6856700e-001  0.0000000e+000  0.0000000e+000  0.0000000e+000  0.0000000e+000  2.0524872e-002  2.0524872e-002  2.0524872e-002 
 2.1679640e-001  0.0000000e+000  0.0000000e+000  0.0000000e+000  0.0000000e+000  1.9767713e-002  1.9767713e-002  1.9767713e-002 
 2.6984873e-001  0.0000000e+000  0.0000000e+000  0.0000000e+000  0.0000000e+000  1.8724345e-002  1.8724345e-002  1.8724345e-002 
 3.2820630e-001  0.0000000e+000  0.0000000e+000  0.0000000e+000  0.0000000e+000  1.7410476e-002  1.7410476e-002  1.7410476e-002 
 3.9239961e-001  0.0000000e+000  0.0000000e+000  0.0000000e+000  0.0000000e+000  1.6295612e-002  1.6295612e-002  1.6295612e-002 
 4.6301234e-001  0.0000000e+000  0.0000000e+000  0.0000000e+000  0.0000000e+000  1.6701801e-002  1.6701801e-002  1.6701801e-002 
 5.3698766e-001  0.0000000e+000  0.0000000e+000  0.0000000e+000  0.0000000e+000  1.9698476e-002  1.9698476e-002  1.9698476e-002 
 6.0760045e-001  0.0000000e+000  0.0000000e+000  0.0000000e+000  0.0000000e+000  2.3862867e-002  2.3862867e-002  2.3862867e-002 
 6.7179370e-001  0.0000000e+000  0.0000000e+000  0.0000000e+000  0.0000000e+000  2.6251798e-002  2.6251798e-002  2.6251798e-002 
 7.3015124e-001  0.0000000e+000  0.0000000e+000  0.0000000e+000  0.0000000e+000  2.6143974e-002  2.6143974e-002  2.6143974e-002 
 7.8320360e-001  0.0000000e+000  0.0000000e+000  0.0000000e+000  0.0000000e+000  2.4005776e-002  2.4005776e-002  2.4005776e-002 
 8.3143300e-001  0.0000000e+000  0.0000000e+000  0.0000000e+000  0.0000000e+000  2.1533672e-002  2.1533672e-002  2.1533672e-002 
 8.7527788e-001  0.0000000e+000  0.0000000e+000  0.0000000e+000  0.0000000e+000  1.9916415e-002  1.9916415e-002  1.9916415e-002 
 9.1513687e-001  0.0000000e+000  0.0000000e+000  0.0000000e+000  0.0000000e+000  1.9175993e-002  1.9175993e-002  1.9175993e-002 
 9.5137233e-001  0.0000000e+000  0.0000000e+000  0.0000000e+000  0.0000000e+000  1.8983277e-002  1.8983277e-002  1.8983277e-002 
 9.8431361e-001  0.0000000e+000  0.0000000e+000  0.0000000e+000  0.0000000e+000  1.9099774e-002  1.9099774e-002  1.9099774e-002 
 1.0000000e+000  0.0000000e+000  0.0000000e+000  0.0000000e+000  0.0000000e+000  1.9155247e-002  1.9155247e-002  1.9155247e-002 
 0.0000000e+000  1.5686335e-002  0.0000000e+000  0.0000000e+000  0.0000000e+000  2.1639135e-002  2.1639135e-002  2.1639135e-002 
 1.5686335e-002  1.5686335e-002  2.9079325e-004 -2.7538519e-004  4.0049685e-004  2.1636067e-002  2.1636067e-002  2.1636147e-002 
 4.8627645e-002  1.5686335e-002  1.4307539e-003 -5.3770316e-004  1.5284572e-003  2.1629624e-002  2.1629624e-002  2.1630792e-002 
 8.4863111e-002  1.5686335e-002  2.7571847e-003 -4.2765005e-004  2.7901526e-003  2.1454997e-002  2.1454997e-002  2.1458890e-002 
 1.2472210e-001  1.5686335e-002  3.2428382e-003 -2.1958665e-004  3.2502643e-003  2.1108670e-002  2.1108670e-002  2.1113953e-002 
 1.6856700e-001  1.5686335e-002  2.3281979e-003 -1.5006808e-004  2.3330294e-003  2.0597538e-002  2.0597538e-002  2.0600259e-002 
 2.1679640e-001  1.5686335e-002 -3.8165110e-004 -8.2920582e-005  3.9055521e-004  1.9896945e-002  1.9896945e-002  1.9897021e-002 
 2.6984873e-001  1.5686335e-002 -5.7119811e-003  1.4690436e-004  5.7138698e-003  1.8919297e-002  1.8919297e-002  1.8935621e-002 
 3.2820630e-001  1.5686335e-002 -1.5269409e-002  8.6376100e-004  1.5293820e-002  1.7646015e-002  1.7646015e-002  1.7762965e-002 
 3.9239961e-001  1.5686335e-002 -3.0490836e-002  2.3472139e-003  3.0581048e-002  1.6436616e-002  1.6436616e-002  1.6904216e-002 
 4.6301234e-001  1.5686335e-002 -4.7649287e-002  3.0373745e-003  4.7745995e-002  1.6664017e-002  1.6664017e-002  1.7803857e-002 
 5.3698766e-001  1.5686335e-002 -5.5583049e-002  1.0330396e-003  5.5592649e-002  1.9572200e-002  1.9572200e-002  2.1117471e-002 
 6.0760045e-001  1.5686335e-002 -4.8495505e-002 -3.2229966e-004  4.8496574e-002  2.3540398e-002  2.3540398e-002  2.4716357e-002 
 6.7179370e-001  1.5686335e-002 -2.8726574e-002 -2.0169015e-003  2.8797291e-002  2.5887970e-002  2.5887970e-002  2.6302611e-002 
 7.3015124e-001  1.5686335e-002 -6.3844468e-003 -2.1104733e-003  6.7242291e-003  2.5788598e-002  2.5788598e-002  2.5811205e-002 
 7.8320360e-001  1.5686335e-002  1.0654822e-002 -9.9300873e-004  1.0700995e-002  2.3743337e-002  2.3743337e-002  2.3800593e-002 
 8.3143300e-001  1.5686335e-002  1.6986830e-002  1.0387608e-003  1.7018560e-002  2.1374406e-002  2.1374406e-002  2.1519221e-002 
 8.7527788e-001  1.5686335e-002  1.4351307e-002  1.9235603e-003  1.4479645e-002  1.9861048e-002  1.9861048e-002  1.9965878e-002 
 9.1513687e-001  1.5686335e-002  8.4483325e-003  1.7180592e-003  8.6212559e-003  1.9204082e-002  1.9204082e-002  1.9241245e-002 
 9.5137233e-001  1.5686335e-002  3.0599530e-003  1.1655289e-003  3.2744114e-003  1.9042976e-002  1.9042976e-002  1.9048337e-002 
 9.8431361e-001  1.5686335e-002  2.0630418e-004  1.9730002e-004  2.8546227e-004  1.9167580e-002  1.9167580e-002  1.9167621e-002 
 1.0000000e+000  1.5686335e-002  0.0000000e+000  0.0000000e+000  0.0000000e+000  1.9226914e-002  1.9226914e-002  1.9226914e-002 
 0.0000000e+000  4.8627645e-002  0.0000000e+000  0.0000000e+000  0.0000000e+000  2.1643834e-002  2.1643834e-002  2.1643834e-002 
 1.5686335e-002  4.8627645e-002  6.1948993e-004 -1.4715265e-003  1.5966082e-003  2.1636792e-002  2.1636792e-002  2.1638066e-002 
 4.8627645e-002  4.8627645e-002  2.4176342e-003 -2.3747645e-003  3.3888733e-003  2.1622000e-002  2.1622000e-002  2.1627743e-002 
 8.4863111e-002  4.8627645e-002  3.7734886e-003 -1.4079789e-003  4.0276074e-003  2.1463333e-002  2.1463333e-002  2.1471443e-002 
 1.2472210e-001  4.8627645e-002  2.6839580e-003  5.1840226e-004  2.7335640e-003  2.1163927e-002  2.1163927e-002  2.1167664e-002 
 1.6856700e-001  4.8627645e-002 -2.5720682e-003  2.7187853e-003  3.7426366e-003  2.0750137e-002  2.0750137e-002  2.0757141e-002 
 2.1679640e-001  4.8627645e-002 -1.3698427e-002  5.3662350e-003  1.4712015e-002  2.0168332e-002  2.0168332e-002  2.0276554e-002 
 2.6984873e-001  4.8627645e-002 -3.3018343e-002  8.9684585e-003  3.4214679e-002  1.9328697e-002  1.9328697e-002  1.9914018e-002 
 3.2820630e-001  4.8627645e-002 -6.2735304e-002  1.3391461e-002  6.4148650e-002  1.8140648e-002  1.8140648e-002  2.0198172e-002 
 3.9239961e-001  4.8627645e-002 -1.0057843e-001  1.5864475e-002  1.0182191e-001  1.6732726e-002  1.6732726e-002  2.1916578e-002 
 4.6301234e-001  4.8627645e-002 -1.3221928e-001  1.1907785e-002  1.3275442e-001  1.6584674e-002  1.6584674e-002  2.5396541e-002 
 5.3698766e-001  4.8627645e-002 -1.3841373e-001 -1.0601184e-004  1.3841377e-001  1.9307021e-002  1.9307021e-002  2.8886206e-002 
 6.0760045e-001  4.8627645e-002 -1.1764418e-001 -1.2154067e-002  1.1827034e-001  2.2863213e-002  2.2863213e-002  2.9857149e-002 
 6.7179370e-001  4.8627645e-002 -7.7116951e-002 -2.0525504e-002  7.9801761e-002  2.5123930e-002  2.5123930e-002  2.8308090e-002 
 7.3015124e-001  4.8627645e-002 -3.3099622e-002 -2.1010181e-002  3.9204754e-002  2.5042308e-002  2.5042308e-002  2.5810815e-002 
 7.8320360e-001  4.8627645e-002  3.6892274e-003 -1.4038820e-002  1.4515470e-002  2.3192216e-002  2.3192216e-002  2.3297565e-002 
 8.3143300e-001  4.8627645e-002  2.3975987e-002 -2.0689263e-003  2.4065087e-002  2.1039950e-002  2.1039950e-002  2.1329515e-002 
 8.7527788e-001  4.8627645e-002  2.5379626e-002  6.1005917e-003  2.6102541e-002  1.9744780e-002  1.9744780e-002  2.0085452e-002 
 9.1513687e-001  4.8627645e-002  1.7343646e-002  8.6502600e-003  1.9381152e-002  1.9263066e-002  1.9263066e-002  1.9450881e-002 
 9.5137233e-001  4.8627645e-002  7.5074686e-003  7.5625782e-003  1.0656203e-002  1.9168345e-002  1.9168345e-002  1.9225122e-002 
 9.8431361e-001  4.8627645e-002  1.1320831e-003  3.2149358e-003  3.4084343e-003  1.9309973e-002  1.9309973e-002  1.9315783e-002 
 1.0000000e+000  4.8627645e-002  0.0000000e+000  0.0000000e+000  0.0000000e+000  1.9377416e-002  1.9377416e-002  1.9377416e-002 
 0.0000000e+000  8.4863111e-002  0.0000000e+000  0.0000000e+000  0.0000000e+000  2.1846425e-002  2.1846425e-002  2.1846425e-002 
 1.5686335e-002  8.4863111e-002  5.7012268e-004 -2.9451419e-003  2.9998168e-003  2.1818081e-002  2.1818081e-002  2.1822581e-002 
 4.8627645e-002  8.4863111e-002  1.2155412e-003 -3.7572701e-003  3.9490024e-003  2.1758560e-002  2.1758560e-002  2.1766357e-002 
 8.4863111e-002  8.4863111e-002 -2.4575618e-004 -4.8479578e-004  5.4352835e-004  2.1591244e-002  2.1591244e-002  2.1591391e-002 
 1.2472210e-001  8.4863111e-002 -6.1684828e-003  5.2979561e-003  8.1313299e-003  2.1315446e-002  2.1315446e-002  2.1348506e-002 
 1.6856700e-001  8.4863111e-002 -1.9248750e-002  1.2514049e-002  2.2959003e-002  2.0939320e-002  2.0939320e-002  2.1202879e-002 
 2.1679640e-001  8.4863111e-002 -4.2261872e-002  2.1112740e-002  4.7242075e-002  2.0385697e-002  2.0385697e-002  2.1501604e-002 
 2.6984873e-001  8.4863111e-002 -7.7222481e-002  3.0782580e-002  8.3131693e-002  1.9471269e-002  1.9471269e-002  2.2926709e-002 
 3.2820630e-001  8.4863111e-002 -1.2280012e-001  3.8096260e-002  1.2857369e-001  1.7905679e-002  1.7905679e-002  2.6171276e-002 
 3.9239961e-001  8.4863111e-002 -1.6869248e-001  3.7031677e-002  1.7270929e-001  1.5872072e-002  1.5872072e-002  3.0786322e-002 
 4.6301234e-001  8.4863111e-002 -1.9888774e-001  2.1570122e-002  2.0005399e-001  1.5246843e-002  1.5246843e-002  3.5257645e-002 
 5.3698766e-001  8.4863111e-002 -2.0208113e-001 -5.4710559e-003  2.0215517e-001  1.7623482e-002  1.7623482e-002  3.8056839e-002 
 6.0760045e-001  8.4863111e-002 -1.7672664e-001 -3.2499600e-002  1.7969009e-001  2.1277744e-002  2.1277744e-002  3.7422009e-002 
 6.7179370e-001  8.4863111e-002 -1.3183595e-001 -5.0076742e-002  1.4102623e-001  2.3853032e-002  2.3853032e-002  3.3797231e-002 
 7.3015124e-001  8.4863111e-002 -7.9697363e-002 -5.2612040e-002  9.5497102e-002  2.4040734e-002  2.4040734e-002  2.8600583e-002 
 7.8320360e-001  8.4863111e-002 -3.0712623e-002 -3.9884735e-002  5.0339419e-002  2.2413848e-002  2.2413848e-002  2.3680877e-002 
 8.3143300e-001  8.4863111e-002  4.8640580e-003 -1.4261523e-002  1.5068182e-002  2.0390095e-002  2.0390095e-002  2.0503620e-002 
 8.7527788e-001  8.4863111e-002  1.8037613e-002  6.7776707e-003  1.9268947e-002  1.9209294e-002  1.9209294e-002  1.9394940e-002 
 9.1513687e-001  8.4863111e-002  1.5397041e-002  1.6440956e-002  2.2524962e-002  1.8862557e-002  1.8862557e-002  1.9116243e-002 
 9.5137233e-001  8.4863111e-002  7.2159981e-003  1.6582852e-002  1.8084845e-002  1.8860262e-002  1.8860262e-002  1.9023793e-002 
 9.8431361e-001  8.4863111e-002  1.0411829e-003  8.1979111e-003  8.2637649e-003  1.9031607e-002  1.9031607e-002  1.9065751e-002 
 1.0000000e+000  8.4863111e-002  0.0000000e+000  0.0000000e+000  0.0000000e+000  1.9113200e-002  1.9113200e-002  1.9113200e-002 
 0.0000000e+000  1.2472210e-001  0.0000000e+000  0.0000000e+000  0.0000000e+000  2.2305118e-002  2.2305118e-002  2.2305118e-002 
 1.5686335e-002  1.2472210e-001  2.3779445e-004 -3.1476850e-003  3.1566543e-003  2.2230616e-002  2.2230616e-002  2.2235598e-002 
 4.8627645e-002  1.2472210e-001 -2.1207284e-003 -1.5982101e-003  2.6555159e-003  2.2074161e-002  2.2074161e-002  2.2077687e-002 
 8.4863111e-002  1.2472210e-001 -9.1697723e-003  6.1308565e-003  1.1030509e-002  2.1867294e-002  2.1867294e-002  2.1928130e-002 
 1.2472210e-001  1.2472210e-001 -2.2877956e-002  1.8127356e-002  2.9189071e-002  2.1554390e-002  2.1554390e-002  2.1980392e-002 
 1.6856700e-001  1.2472210e-001 -4.6347167e-002  3.2950293e-002  5.6866352e-002  2.1095019e-002  2.1095019e-002  2.2711910e-002 
 2.1679640e-001  1.2472210e-001 -8.1833191e-002  4.9459130e-002  9.5618390e-002  2.0327449e-002  2.0327449e-002  2.4898887e-002 
 2.6984873e-001  1.2472210e-001 -1.2892020e-001  6.4051099e-002  1.4395472e-001  1.8843520e-002  1.8843520e-002  2.9205000e-002 
 3.2820630e-001  1.2472210e-001 -1.8035318e-001  6.9374062e-002  1.9323568e-001  1.6095625e-002  1.6095625e-002  3.4765638e-002 
 3.9239961e-001  1.2472210e-001 -2.2475770e-001  5.9646994e-002  2.3253772e-001  1.3100719e-002  1.3100719e-002  4.0137611e-002 
 4.6301234e-001  1.2472210e-001 -2.5115207e-001  3.0303570e-002  2.5297365e-001  1.1504396e-002  1.1504396e-002  4.3502230e-002 
 5.3698766e-001  1.2472210e-001 -2.5457531e-001 -1.2013467e-002  2.5485861e-001  1.3311260e-002  1.3311260e-002  4.5787718e-002 
 6.0760045e-001  1.2472210e-001 -2.3440665e-001 -5.3655446e-002  2.4046910e-001  1.7126050e-002  1.7126050e-002  4.6038743e-002 
 6.7179370e-001  1.2472210e-001 -1.9347194e-001 -8.2982913e-002  2.1051735e-001  2.0517457e-002  2.0517457e-002  4.2676236e-002 
 7.3015124e-001  1.2472210e-001 -1.4106464e-001 -9.1706671e-002  1.6825382e-001  2.1800565e-002  2.1800565e-002  3.5955239e-002 
 7.8320360e-001  1.2472210e-001 -8.3506912e-002 -7.8204237e-002  1.1440851e-001  2.0978536e-002  2.0978536e-002  2.7523190e-002 
 8.3143300e-001  1.2472210e-001 -3.2265458e-002 -4.0395603e-002  5.1699754e-002  1.9562408e-002  1.9562408e-002  2.0898841e-002 
 8.7527788e-001  1.2472210e-001 -1.8203488e-003 -2.3463850e-003  2.9697125e-003  1.8502172e-002  1.8502172e-002  1.8506581e-002 
 9.1513687e-001  1.2472210e-001  6.3288459e-003  1.8790845e-002  1.9828014e-002  1.8163733e-002  1.8163733e-002  1.8360307e-002 
 9.5137233e-001  1.2472210e-001  3.9015806e-003  2.3078125e-002  2.3405602e-002  1.8171463e-002  1.8171463e-002  1.8445374e-002 
 9.8431361e-001  1.2472210e-001  4.5824129e-004  1.2075300e-002  1.2083992e-002  1.8315863e-002  1.8315863e-002  1.8388875e-002 
 1.0000000e+000  1.2472210e-001  0.0000000e+000  0.0000000e+000  0.0000000e+000  1.8384624e-002  1.8384624e-002  1.8384624e-002 
 0.0000000e+000  1.6856700e-001  0.0000000e+000  0.0000000e+000  0.0000000e+000  2.2999318e-002  2.2999318e-002  2.2999318e-002 
 1.5686335e-002  1.6856700e-001 -4.7602915e-004  1.4620441e-005  4.7625363e-004  2.2856208e-002  2.2856208e-002  2.2856321e-002 
 4.8627645e-002  1.6856700e-001 -7.8004878e-003  8.0432240e-003  1.1204511e-002  2.2555675e-002  2.2555675e-002  2.2618446e-002 
 8.4863111e-002  1.6856700e-001 -2.2863651e-002  2.2735072e-002  3.2243293e-002  2.2268401e-002  2.2268401e-002  2.2788217e-002 
 1.2472210e-001  1.6856700e-001 -4.6297904e-002  4.3198049e-002  6.3321143e-002  2.1799762e-002  2.1799762e-002  2.3804545e-002 
 1.6856700e-001  1.6856700e-001 -8.0637880e-002  6.6983074e-002  1.0482939e-001  2.0983974e-002  2.0983974e-002  2.6478574e-002 
 2.1679640e-001  1.6856700e-001 -1.2599450e-001  8.9614391e-002  1.5461357e-001  1.9391509e-002  1.9391509e-002  3.1344187e-002 
 2.6984873e-001  1.6856700e-001 -1.7654727e-001  1.0380905e-001  2.0480542e-001  1.6461272e-002  1.6461272e-002  3.7433900e-002 
 3.2820630e-001  1.6856700e-001 -2.2535835e-001  1.0335580e-001  2.4792904e-001  1.1832649e-002  1.1832649e-002  4.2567052e-002 
 3.9239961e-001  1.6856700e-001 -2.6355433e-001  8.0549084e-002  2.7558854e-001  7.2601195e-003  7.2601195e-003  4.5234639e-002 
 4.6301234e-001  1.6856700e-001 -2.8583270e-001  3.8860049e-002  2.8846219e-001  4.1772197e-003  4.1772197e-003  4.5782439e-002 
 5.3698766e-001  1.6856700e-001 -2.8998607e-001 -1.6552685e-002  2.9045811e-001  5.0475663e-003  5.0475663e-003  4.7230523e-002 
 6.0760045e-001  1.6856700e-001 -2.7817908e-001 -7.2161488e-002  2.8738630e-001  8.9820633e-003  8.9820633e-003  5.0277505e-002 
 6.7179370e-001  1.6856700e-001 -2.4698332e-001 -1.1548640e-001  2.7264971e-001  1.3715076e-002  1.3715076e-002  5.0884012e-002 
 7.3015124e-001  1.6856700e-001 -2.0151299e-001 -1.3650525e-001  2.4339509e-001  1.7295331e-002  1.7295331e-002  4.6915915e-002 
 7.8320360e-001  1.6856700e-001 -1.4373584e-001 -1.3013896e-001  1.9389725e-001  1.8251266e-002  1.8251266e-002  3.7049338e-002 
 8.3143300e-001  1.6856700e-001 -8.0665328e-002 -8.7163202e-002  1.1876161e-001  1.8524177e-002  1.8524177e-002  2.5576336e-002 
 8.7527788e-001  1.6856700e-001 -2.8909098e-002 -2.9093612e-002  4.1014317e-002  1.7913623e-002  1.7913623e-002  1.8754710e-002 
 9.1513687e-001  1.6856700e-001 -4.8102438e-003  1.0590272e-002  1.1631522e-002  1.7466459e-002  1.7466459e-002  1.7534105e-002 
 9.5137233e-001  1.6856700e-001  6.4856710e-004  2.3784691e-002  2.3793532e-002  1.7292419e-002  1.7292419e-002  1.7575486e-002 
 9.8431361e-001  1.6856700e-001  1.9162252e-004  1.3631471e-002  1.3632817e-002  1.7332274e-002  1.7332274e-002  1.7425202e-002 
 1.0000000e+000  1.6856700e-001  0.0000000e+000  0.0000000e+000  0.0000000e+000  1.7351253e-002  1.7351253e-002  1.7351253e-002 
 0.0000000e+000  2.1679640e-001  0.0000000e+000  0.0000000e+000  0.0000000e+000  2.3678765e-002  2.3678765e-002  2.3678765e-002 
 1.5686335e-002  2.1679640e-001 -1.8328682e-003  9.7696688e-003  9.9401120e-003  2.3460193e-002  2.3460193e-002  2.3509596e-002 
 4.8627645e-002  2.1679640e-001 -1.5741903e-002  3.0013328e-002  3.3891112e-002  2.3001190e-002  2.3001190e-002  2.3575494e-002 
 8.4863111e-002  2.1679640e-001 -3.9801918e-002  5.3611081e-002  6.6770807e-002  2.2547608e-002  2.2547608e-002  2.4776779e-002 
 1.2472210e-001  2.1679640e-001 -7.1889423e-002  8.2409799e-002  1.0935933e-001  2.1588590e-002  2.1588590e-002  2.7568322e-002 
 1.6856700e-001  2.1679640e-001 -1.1217167e-001  1.1207516e-001  1.5856647e-001  1.9723931e-002  1.9723931e-002  3.2295592e-002 
 2.1679640e-001  2.1679640e-001 -1.5726076e-001  1.3529284e-001  2.0744903e-001  1.6430562e-002  1.6430562e-002  3.7948113e-002 
 2.6984873e-001  2.1679640e-001 -2.0228536e-001  1.4384490e-001  2.4821508e-001  1.1160406e-002  1.1160406e-002  4.1965768e-002 
 3.2820630e-001  2.1679640e-001 -2.4217291e-001  1.3469833e-001  2.7711254e-001  4.5059109e-003  4.5059109e-003  4.2901590e-002 
 3.9239961e-001  2.1679640e-001 -2.7348521e-001  1.0052470e-001  2.9137498e-001 -2.1143390e-003 -2.1143390e-003  4.0335350e-002 
 4.6301234e-001  2.1679640e-001 -2.9158419e-001  4.7649063e-002  2.9545182e-001 -6.8896166e-003 -6.8896166e-003  3.6756270e-002 
 5.3698766e-001  2.1679640e-001 -2.9690754e-001 -1.7989594e-002  2.9745203e-001 -7.3752743e-003 -7.3752743e-003  3.6863584e-002 
 6.0760045e-001  2.1679640e-001 -2.9192996e-001 -8.4729858e-002  3.0397737e-001 -3.6862479e-003 -3.6862479e-003  4.2514876e-002 
 6.7179370e-001  2.1679640e-001 -2.7523443e-001 -1.4169273e-001  3.0956554e-001  2.4273049e-003  2.4273049e-003  5.0342716e-002 
 7.3015124e-001  2.1679640e-001 -2.4479420e-001 -1.7980619e-001  3.0373421e-001  8.8274060e-003  8.8274060e-003  5.4954641e-002 
 7.8320360e-001  2.1679640e-001 -1.9709980e-001 -1.8750745e-001  2.7204296e-001  1.3122683e-002  1.3122683e-002  5.0126374e-002 
 8.3143300e-001  2.1679640e-001 -1.3444707e-001 -1.5732621e-001  2.0694818e-001  1.6084608e-002  1.6084608e-002  3.7498381e-002 
 8.7527788e-001  2.1679640e-001 -6.5431014e-002 -8.3393946e-002  1.0599890e-001  1.7186146e-002  1.7186146e-002  2.2804029e-002 
 9.1513687e-001  2.1679640e-001 -1.8467411e-002 -1.5660917e-002  2.4213832e-002  1.6747167e-002  1.6747167e-002  1.7040322e-002 
 9.5137233e-001  2.1679640e-001 -1.6020604e-003  1.7240979e-002  1.7315252e-002  1.6220899e-002  1.6220899e-002  1.6370809e-002 
 9.8431361e-001  2.1679640e-001  6.1974651e-004  1.3675476e-002  1.3689512e-002  1.6063241e-002  1.6063241e-002  1.6156944e-002 
 1.0000000e+000  2.1679640e-001  0.0000000e+000  0.0000000e+000  0.0000000e+000  1.5988166e-002  1.5988166e-002  1.5988166e-002 
 0.0000000e+000  2.6984873e-001  0.0000000e+000  0.0000000e+000  0.0000000e+000  2.3283090e-002  2.3283090e-002  2.3283090e-002 
 1.5686335e-002  2.6984873e-001 -2.4158251e-003  2.6909553e-002  2.7017776e-002  2.2978656e-002  2.2978656e-002  2.3343636e-002 
 4.8627645e-002  2.6984873e-001 -2.0414429e-002  6.4175814e-002  6.7344517e-002  2.2339342e-002  2.2339342e-002  2.4606984e-002 
 8.4863111e-002  2.6984873e-001 -4.9204636e-002  9.6043542e-002  1.0791413e-001  2.1548502e-002  2.1548502e-002  2.7371231e-002 
 1.2472210e-001  2.6984873e-001 -8.3502509e-002  1.2978034e-001  1.5432306e-001  1.9783203e-002  1.9783203e-002  3.1691004e-002 
 1.6856700e-001  2.6984873e-001 -1.2237994e-001  1.6034554e-001  2.0171154e-001  1.6573092e-002  1.6573092e-002  3.6916863e-002 
 2.1679640e-001  2.6984873e-001 -1.6288839e-001  1.7929564e-001  2.4223864e-001  1.1376383e-002  1.1376383e-002  4.0716160e-002 
 2.6984873e-001  2.6984873e-001 -2.0195545e-001  1.8153165e-001  2.7155063e-001  3.5491853e-003  3.5491853e-003  4.0419057e-002 
 3.2820630e-001  2.6984873e-001 -2.3502502e-001  1.6225137e-001  2.8559110e-001 -5.6072469e-003 -5.6072469e-003  3.5173886e-002 
 3.9239961e-001  2.6984873e-001 -2.5615352e-001  1.1705239e-001  2.8163075e-001 -1.4582789e-002 -1.4582789e-002  2.5075156e-002 
 4.6301234e-001  2.6984873e-001 -2.6729682e-001  5.5010200e-002  2.7289873e-001 -2.0866625e-002 -2.0866625e-002  1.6370231e-002 
 5.3698766e-001  2.6984873e-001 -2.7148664e-001 -1.7025042e-002  2.7201995e-001 -2.2514679e-002 -2.2514679e-002  1.4482745e-002 
 6.0760045e-001  2.6984873e-001 -2.7254033e-001 -8.9254804e-002  2.8678328e-001 -1.9428901e-002 -1.9428901e-002  2.1693425e-002 
 6.7179370e-001  2.6984873e-001 -2.7022600e-001 -1.5609933e-001  3.1207225e-001 -1.3125023e-002 -1.3125023e-002  3.5569523e-002 
 7.3015124e-001  2.6984873e-001 -2.5522476e-001 -2.1104163e-001  3.3117706e-001 -4.6752393e-003 -4.6752393e-003  5.0163884e-002 
 7.8320360e-001  2.6984873e-001 -2.2688885e-001 -2.4054073e-001  3.3066356e-001  4.1366019e-003  4.1366019e-003  5.8805797e-002 
 8.3143300e-001  2.6984873e-001 -1.7884612e-001 -2.3409237e-001  2.9459324e-001  1.0290477e-002  1.0290477e-002  5.3683065e-002 
 8.7527788e-001  2.6984873e-001 -1.1050819e-001 -1.7245120e-001  2.0482059e-001  1.4636456e-002  1.4636456e-002  3.5612192e-002 
 9.1513687e-001  2.6984873e-001 -4.1960467e-002 -7.2132997e-002  8.3449684e-002  1.5396975e-002  1.5396975e-002  1.8878900e-002 
 9.5137233e-001  2.6984873e-001 -5.8767828e-003 -1.5748501e-003  6.0841376e-003  1.4561257e-002  1.4561257e-002  1.4579765e-002 
 9.8431361e-001  2.6984873e-001  1.4794560e-003  1.2059544e-002  1.2149954e-002  1.4010875e-002  1.4010875e-002  1.4084686e-002 
 1.0000000e+000  2.6984873e-001  0.0000000e+000  0.0000000e+000  0.0000000e+000  1.3748787e-002  1.3748787e-002  1.3748787e-002 
 0.0000000e+000  3.2820630e-001  0.0000000e+000  0.0000000e+000  0.0000000e+000  2.0752575e-002  2.0752575e-002  2.0752575e-002 
 1.5686335e-002  3.2820630e-001 -1.9212542e-003  4.8076034e-002  4.8114408e-002  2.0385724e-002  2.0385724e-002  2.1543222e-002 
 4.8627645e-002  3.2820630e-001 -1.9960890e-002  1.0553051e-001  1.0740170e-001  1.9615335e-002  1.9615335e-002  2.5382899e-002 
 8.4863111e-002  3.2820630e-001 -4.8507858e-002  1.4420953e-001  1.5214927e-001  1.8473387e-002  1.8473387e-002  3.0048087e-002 
 1.2472210e-001  3.2820630e-001 -8.1008881e-002  1.7924067e-001  1.9669686e-001  1.5821818e-002  1.5821818e-002  3.5166647e-002 
 1.6856700e-001  3.2820630e-001 -1.1545698e-001  2.0740768e-001  2.3737788e-001  1.1004517e-002  1.1004517e-002  3.9178647e-002 
 2.1679640e-001  3.2820630e-001 -1.4864682e-001  2.2049925e-001  2.6592442e-001  3.5756640e-003  3.5756640e-003  3.8933560e-002 
 2.6984873e-001  3.2820630e-001 -1.7849253e-001  2.1498394e-001  2.7942383e-001 -6.6424808e-003 -6.6424808e-003  3.2396358e-002 
 3.2820630e-001  3.2820630e-001 -1.9975550e-001  1.8288240e-001  2.7082878e-001 -1.7839542e-002 -1.7839542e-002  1.8834574e-002 
 3.9239961e-001  3.2820630e-001 -2.0939083e-001  1.2737563e-001  2.4508993e-001 -2.8139396e-002 -2.8139396e-002  1.8951410e-003 
 4.6301234e-001  3.2820630e-001 -2.1241762e-001  5.9807081e-002  2.2067653e-001 -3.5143960e-002 -3.5143960e-002 -1.0794895e-002 
 5.3698766e-001  3.2820630e-001 -2.1317177e-001 -1.3055177e-002  2.1357116e-001 -3.7257295e-002 -3.7257295e-002 -1.4450976e-002 
 6.0760045e-001  3.2820630e-001 -2.1810839e-001 -8.4849849e-002  2.3403154e-001 -3.4687698e-002 -3.4687698e-002 -7.3023154e-003 
 6.7179370e-001  3.2820630e-001 -2.2539797e-001 -1.5573208e-001  2.7396482e-001 -2.8727550e-002 -2.8727550e-002  8.8008139e-003 
 7.3015124e-001  3.2820630e-001 -2.3026200e-001 -2.2189665e-001  3.1977916e-001 -2.0169670e-002 -2.0169670e-002  3.0959684e-002 
 7.8320360e-001  3.2820630e-001 -2.2444117e-001 -2.7640665e-001  3.5605404e-001 -1.0041705e-002 -1.0041705e-002  5.3345531e-002 
 8.3143300e-001  3.2820630e-001 -1.9535878e-001 -2.9794189e-001  3.5627857e-001 -1.0598802e-004 -1.0598802e-004  6.3361228e-002 
 8.7527788e-001  3.2820630e-001 -1.4626347e-001 -2.7182898e-001  3.0868107e-001  7.8530340e-003  7.8530340e-003  5.5495031e-002 
 9.1513687e-001  3.2820630e-001 -7.4710317e-002 -1.7117058e-001  1.8676455e-001  1.1938989e-002  1.1938989e-002  2.9379489e-002 
 9.5137233e-001  3.2820630e-001 -1.5966276e-002 -4.5829348e-002  4.8530929e-002  1.1598668e-002  1.1598668e-002  1.2776294e-002 
 9.8431361e-001  3.2820630e-001  2.0044900e-003  5.6993663e-003  6.0415855e-003  1.0423615e-002  1.0423615e-002  1.0441865e-002 
 1.0000000e+000  3.2820630e-001  0.0000000e+000  0.0000000e+000  0.0000000e+000  9.8640649e-003  9.8640649e-003  9.8640649e-003 
 0.0000000e+000  3.9239961e-001  0.0000000e+000  0.0000000e+000  0.0000000e+000  1.5697652e-002  1.5697652e-002  1.5697652e-002 
 1.5686335e-002  3.9239961e-001 -2.8071157e-004  6.7556873e-002  6.7557454e-002  1.5300374e-002  1.5300374e-002  1.7582379e-002 
 4.8627645e-002  3.9239961e-001 -1.4287878e-002  1.4615370e-001  1.4685042e-001  1.4466086e-002  1.4466086e-002  2.5248611e-002 
 8.4863111e-002  3.9239961e-001 -3.8234659e-002  1.9137469e-001  1.9515675e-001  1.2913594e-002  1.2913594e-002  3.1956673e-002 
 1.2472210e-001  3.9239961e-001 -6.4301215e-002  2.2614925e-001  2.3511301e-001  9.4355224e-003  9.4355224e-003  3.7074585e-002 
 1.6856700e-001  3.9239961e-001 -9.0252928e-002  2.4933225e-001  2.6516441e-001  3.3546716e-003  3.3546716e-003  3.8510751e-002 
 2.1679640e-001  3.9239961e-001 -1.1404470e-001  2.5382912e-001  2.7827221e-001 -5.7244264e-003 -5.7244264e-003  3.2993283e-002 
 2.6984873e-001  3.9239961e-001 -1.3350235e-001  2.3826523e-001  2.7311754e-001 -1.7238410e-002 -1.7238410e-002  2.0058189e-002 
 3.2820630e-001  3.9239961e-001 -1.4408915e-001  1.9375919e-001  2.4146284e-001 -2.9390004e-002 -2.9390004e-002 -2.3785085e-004 
 3.9239961e-001  3.9239961e-001 -1.4624692e-001  1.3034070e-001  1.9590013e-001 -3.9742641e-002 -3.9742641e-002 -2.0554211e-002 
 4.6301234e-001  3.9239961e-001 -1.4605364e-001  6.1181828e-002  1.5835051e-001 -4.6430718e-002 -4.6430718e-002 -3.3893276e-002 
 5.3698766e-001  3.9239961e-001 -1.4664945e-001 -9.0715429e-003  1.4692976e-001 -4.8569940e-002 -4.8569940e-002 -3.7775762e-002 
 6.0760045e-001  3.9239961e-001 -1.5133332e-001 -7.6327749e-002  1.6949247e-001 -4.6543818e-002 -4.6543818e-002 -3.2179970e-002 
 6.7179370e-001  3.9239961e-001 -1.5854865e-001 -1.4228721e-001  2.1303363e-001 -4.1459884e-002 -4.1459884e-002 -1.8768221e-002 
 7.3015124e-001  3.9239961e-001 -1.6996132e-001 -2.1016978e-001  2.7029279e-001 -3.3864304e-002 -3.3864304e-002  2.6647882e-003 
 7.8320360e-001  3.9239961e-001 -1.8024261e-001 -2.8085306e-001  3.3371520e-001 -2.4137979e-002 -2.4137979e-002  3.1544942e-002 
 8.3143300e-001  3.9239961e-001 -1.8038683e-001 -3.3777025e-001  3.8292056e-001 -1.3190077e-002 -1.3190077e-002  6.0123999e-002 
 8.7527788e-001  3.9239961e-001 -1.5235907e-001 -3.5140252e-001  3.8301048e-001 -3.3711200e-003 -3.3711200e-003  6.9977388e-002 
 9.1513687e-001  3.9239961e-001 -1.0007277e-001 -2.9173210e-001  3.0841884e-001  4.1538943e-003  4.1538943e-003  5.1714983e-002 
 9.5137233e-001  3.9239961e-001 -3.1218812e-002 -1.3203610e-001  1.3567662e-001  6.3365391e-003  6.3365391e-003  1.5540613e-002 
 9.8431361e-001  3.9239961e-001  2.6882449e-003 -1.1191921e-002  1.1510246e-002  4.1067423e-003  4.1067423e-003  4.1729854e-003 
 1.0000000e+000  3.9239961e-001  0.0000000e+000  0.0000000e+000  0.0000000e+000  3.0449333e-003  3.0449333e-003  3.0449333e-003 
 0.0000000e+000  4.6301234e-001  0.0000000e+000  0.0000000e+000  0.0000000e+000  8.7893959e-003  8.7893959e-003  8.7893959e-003 
 1.5686335e-002  4.6301234e-001  1.1765477e-003  7.8916639e-002  7.8925408e-002  8.5095363e-003  8.5095363e-003  1.1624146e-002 
 4.8627645e-002  4.6301234e-001 -4.6833935e-003  1.7847177e-001  1.7853321e-001  7.9218308e-003  7.9218308e-003  2.3858884e-002 
 8.4863111e-002  4.6301234e-001 -1.8584274e-002  2.3018688e-001  2.3093587e-001  6.0483520e-003  6.0483520e-003  3.2714039e-002 
 1.2472210e-001  4.6301234e-001 -3.5136044e-002  2.6158530e-001  2.6393446e-001  2.0361864e-003  2.0361864e-003  3.6866892e-002 
 1.6856700e-001  4.6301234e-001 -5.1123068e-002  2.7852997e-001  2.8318283e-001 -4.6906914e-003 -4.6906914e-003  3.5405565e-002 
 2.1679640e-001  4.6301234e-001 -6.5337174e-002  2.7705318e-001  2.8465313e-001 -1.4370552e-002 -1.4370552e-002  2.6143152e-002 
 2.6984873e-001  4.6301234e-001 -7.6050937e-002  2.5132018e-001  2.6257491e-001 -2.6143039e-002 -2.6143039e-002  8.3297510e-003 
 3.2820630e-001  4.6301234e-001 -8.0344558e-002  1.9831291e-001  2.1397023e-001 -3.8115393e-002 -3.8115393e-002 -1.5223765e-002 