Variables = "x","y", "Velocity_x", "Velocity_y", "Velocity_whole value", "Pressure", "Absolute pressure", "Total pressure"
Zone i=22, j=22
 0.0000000e+000  0.0000000e+000  0.0000000e+000  0.0000000e+000  0.0000000e+000  2.3723489e-002  2.3723489e-002  2.3723489e-002 
 2.5000004e-002  0.0000000e+000  0.0000000e+000  0.0000000e+000  0.0000000e+000  2.3657087e-002  2.3657087e-002  2.3657087e-002 
 7.5000003e-002  0.0000000e+000  0.0000000e+000  0.0000000e+000  0.0000000e+000  2.3524286e-002  2.3524286e-002  2.3524286e-002 
 1.2500000e-001  0.0000000e+000  0.0000000e+000  0.0000000e+000  0.0000000e+000  2.3153834e-002  2.3153834e-002  2.3153834e-002 
 1.7500001e-001  0.0000000e+000  0.0000000e+000  0.0000000e+000  0.0000000e+000  2.2586262e-002  2.2586262e-002  2.2586262e-002 
 2.2500005e-001  0.0000000e+000  0.0000000e+000  0.0000000e+000  0.0000000e+000  2.1886434e-002  2.1886434e-002  2.1886434e-002 
 2.7500010e-001  0.0000000e+000  0.0000000e+000  0.0000000e+000  0.0000000e+000  2.1097653e-002  2.1097653e-002  2.1097653e-002 
 3.2500011e-001  0.0000000e+000  0.0000000e+000  0.0000000e+000  0.0000000e+000  2.0389332e-002  2.0389332e-002  2.0389332e-002 
 3.7500012e-001  0.0000000e+000  0.0000000e+000  0.0000000e+000  0.0000000e+000  2.0015894e-002  2.0015894e-002  2.0015894e-002 
 4.2500010e-001  0.0000000e+000  0.0000000e+000  0.0000000e+000  0.0000000e+000  2.0130152e-002  2.0130152e-002  2.0130152e-002 
 4.7500011e-001  0.0000000e+000  0.0000000e+000  0.0000000e+000  0.0000000e+000  2.0893143e-002  2.0893143e-002  2.0893143e-002 
 5.2500015e-001  0.0000000e+000  0.0000000e+000  0.0000000e+000  0.0000000e+000  2.2183562e-002  2.2183562e-002  2.2183562e-002 
 5.7500029e-001  0.0000000e+000  0.0000000e+000  0.0000000e+000  0.0000000e+000  2.3966627e-002  2.3966627e-002  2.3966627e-002 
 6.2500030e-001  0.0000000e+000  0.0000000e+000  0.0000000e+000  0.0000000e+000  2.5744643e-002  2.5744643e-002  2.5744643e-002 
 6.7500031e-001  0.0000000e+000  0.0000000e+000  0.0000000e+000  0.0000000e+000  2.6806084e-002  2.6806084e-002  2.6806084e-002 
 7.2500044e-001  0.0000000e+000  0.0000000e+000  0.0000000e+000  0.0000000e+000  2.6725046e-002  2.6725046e-002  2.6725046e-002 
 7.7500045e-001  0.0000000e+000  0.0000000e+000  0.0000000e+000  0.0000000e+000  2.5535783e-002  2.5535783e-002  2.5535783e-002 
 8.2500052e-001  0.0000000e+000  0.0000000e+000  0.0000000e+000  0.0000000e+000  2.3629230e-002  2.3629230e-002  2.3629230e-002 
 8.7500066e-001  0.0000000e+000  0.0000000e+000  0.0000000e+000  0.0000000e+000  2.1941798e-002  2.1941798e-002  2.1941798e-002 
 9.2500079e-001  0.0000000e+000  0.0000000e+000  0.0000000e+000  0.0000000e+000  2.1078410e-002  2.1078410e-002  2.1078410e-002 
 9.7500038e-001  0.0000000e+000  0.0000000e+000  0.0000000e+000  0.0000000e+000  2.0982279e-002  2.0982279e-002  2.0982279e-002 
 1.0000000e+000  0.0000000e+000  0.0000000e+000  0.0000000e+000  0.0000000e+000  2.0934213e-002  2.0934213e-002  2.0934213e-002 
 0.0000000e+000  2.5000004e-002  0.0000000e+000  0.0000000e+000  0.0000000e+000  2.3787173e-002  2.3787173e-002  2.3787173e-002 
 2.5000004e-002  2.5000004e-002  1.3081150e-003 -1.2851454e-003  1.8337839e-003  2.3716737e-002  2.3716737e-002  2.3718419e-002 
 7.5000003e-002  2.5000004e-002  3.3566558e-003 -1.4754985e-003  3.6666379e-003  2.3575867e-002  2.3575867e-002  2.3582589e-002 
 1.2500000e-001  2.5000004e-002  4.1193129e-003 -9.4945199e-004  4.2273155e-003  2.3232274e-002  2.3232274e-002  2.3241209e-002 
 1.7500001e-001  2.5000004e-002  2.5219023e-003 -6.0692645e-004  2.5939066e-003  2.2726998e-002  2.2726998e-002  2.2730362e-002 
 2.2500005e-001  2.5000004e-002 -1.8046589e-003 -2.4454316e-004  1.8211522e-003  2.2100115e-002  2.2100115e-002  2.2101773e-002 
 2.7500010e-001  2.5000004e-002 -9.2422925e-003  6.1549275e-004  9.2627639e-003  2.1368107e-002  2.1368107e-002  2.1411005e-002 
 3.2500011e-001  2.5000004e-002 -2.0218024e-002  2.3914261e-003  2.0358965e-002  2.0639503e-002  2.0639503e-002  2.0846747e-002 
 3.7500012e-001  2.5000004e-002 -3.4266513e-002  4.9129557e-003  3.4616917e-002  2.0114588e-002  2.0114588e-002  2.0713754e-002 
 4.2500010e-001  2.5000004e-002 -4.9475942e-002  6.8985233e-003  4.9954563e-002  2.0013236e-002  2.0013236e-002  2.1260966e-002 
 4.7500011e-001  2.5000004e-002 -6.2207364e-002  7.0914449e-003  6.2610261e-002  2.0555623e-002  2.0555623e-002  2.2515645e-002 
 5.2500015e-001  2.5000004e-002 -6.8321466e-002  4.4888183e-003  6.8468772e-002  2.1777932e-002  2.1777932e-002  2.4121918e-002 
 5.7500029e-001  2.5000004e-002 -6.6636808e-002  1.5055718e-003  6.6653818e-002  2.3510620e-002  2.3510620e-002  2.5731986e-002 
 6.2500030e-001  2.5000004e-002 -5.5481993e-002 -1.4034014e-003  5.5499740e-002  2.5225235e-002  2.5225235e-002  2.6765347e-002 
 6.7500031e-001  2.5000004e-002 -3.7432920e-002 -3.9819833e-003  3.7644118e-002  2.6310893e-002  2.6310893e-002  2.7019432e-002 
 7.2500044e-001  2.5000004e-002 -1.5955433e-002 -4.6597486e-003  1.6621947e-002  2.6272427e-002  2.6272427e-002  2.6410572e-002 
 7.7500045e-001  2.5000004e-002  4.2209229e-003 -3.1922932e-003  5.2921572e-003  2.5128201e-002  2.5128201e-002  2.5142204e-002 
 8.2500052e-001  2.5000004e-002  1.7604664e-002  7.3941308e-004  1.7620185e-002  2.3295093e-002  2.3295093e-002  2.3450328e-002 
 8.7500066e-001  2.5000004e-002  1.8898133e-002  4.0789992e-003  1.9333331e-002  2.1712618e-002  2.1712618e-002  2.1899506e-002 
 9.2500079e-001  2.5000004e-002  1.1066270e-002  4.9230251e-003  1.2111916e-002  2.0940980e-002  2.0940980e-002  2.1014329e-002 
 9.7500038e-001  2.5000004e-002  2.4695464e-003  2.8587237e-003  3.7776926e-003  2.0898076e-002  2.0898076e-002  2.0905212e-002 
 1.0000000e+000  2.5000004e-002  0.0000000e+000  0.0000000e+000  0.0000000e+000  2.0876624e-002  2.0876624e-002  2.0876624e-002 
 0.0000000e+000  7.5000003e-002  0.0000000e+000  0.0000000e+000  0.0000000e+000  2.3914536e-002  2.3914536e-002  2.3914536e-002 
 2.5000004e-002  7.5000003e-002  1.5154793e-003 -3.5315319e-003  3.8429669e-003  2.3836033e-002  2.3836033e-002  2.3843417e-002 
 7.5000003e-002  7.5000003e-002  2.0566040e-003 -2.6481783e-003  3.3529790e-003  2.3679027e-002  2.3679027e-002  2.3684649e-002 
 1.2500000e-001  7.5000003e-002 -1.9898165e-003  1.6470777e-003  2.5830669e-003  2.3389151e-002  2.3389151e-002  2.3392487e-002 
 1.7500001e-001  7.5000003e-002 -1.2504640e-002  6.8416637e-003  1.4253926e-002  2.3008469e-002  2.3008469e-002  2.3110056e-002 
 2.2500005e-001  7.5000003e-002 -3.0537318e-002  1.2721795e-002  3.3081293e-002  2.2527473e-002  2.2527473e-002  2.3074659e-002 
 2.7500010e-001  7.5000003e-002 -5.5704370e-002  1.9490387e-002  5.9015695e-002  2.1909015e-002  2.1909015e-002  2.3650441e-002 
 3.2500011e-001  7.5000003e-002 -8.5665338e-002  2.5482215e-002  8.9375019e-002  2.1139847e-002  2.1139847e-002  2.5133794e-002 
 3.7500012e-001  7.5000003e-002 -1.1544200e-001  2.7536195e-002  1.1868066e-001  2.0311976e-002  2.0311976e-002  2.7354525e-002 
 4.2500010e-001  7.5000003e-002 -1.3941118e-001  2.4609175e-002  1.4156656e-001  1.9779405e-002  1.9779405e-002  2.9799949e-002 
 4.7500011e-001  7.5000003e-002 -1.5372281e-001  1.5351171e-002  1.5448742e-001  1.9880582e-002  1.9880582e-002  3.1813763e-002 
 5.2500015e-001  7.5000003e-002 -1.5625963e-001  1.8078405e-003  1.5627009e-001  2.0966673e-002  2.0966673e-002  3.3176843e-002 
 5.7500029e-001  7.5000003e-002 -1.4825012e-001 -1.2065810e-002  1.4874032e-001  2.2598606e-002  2.2598606e-002  3.3660445e-002 
 6.2500030e-001  7.5000003e-002 -1.2775615e-001 -2.4982052e-002  1.3017578e-001  2.4186421e-002  2.4186421e-002  3.2659288e-002 
 6.7500031e-001  7.5000003e-002 -9.8647714e-002 -3.4071889e-002  1.0436601e-001  2.5320511e-002  2.5320511e-002  3.0766644e-002 
 7.2500044e-001  7.5000003e-002 -6.2919013e-002 -3.6141030e-002  7.2560154e-002  2.5367189e-002  2.5367189e-002  2.7999677e-002 
 7.7500045e-001  7.5000003e-002 -2.6828293e-002 -3.0450316e-002  4.0582988e-002  2.4313036e-002  2.4313036e-002  2.5136527e-002 
 8.2500052e-001  7.5000003e-002  4.1449489e-003 -1.3731095e-002  1.4343067e-002  2.2626823e-002  2.2626823e-002  2.2729686e-002 
 8.7500066e-001  7.5000003e-002  1.9083122e-002  4.8956261e-003  1.9701084e-002  2.1254258e-002  2.1254258e-002  2.1448325e-002 
 9.2500079e-001  7.5000003e-002  1.5223827e-002  1.4541520e-002  2.1052808e-002  2.0666122e-002  2.0666122e-002  2.0887733e-002 
 9.7500038e-001  7.5000003e-002  3.8443122e-003  1.0539833e-002  1.1219038e-002  2.0729672e-002  2.0729672e-002  2.0792605e-002 
 1.0000000e+000  7.5000003e-002  0.0000000e+000  0.0000000e+000  0.0000000e+000  2.0761447e-002  2.0761447e-002  2.0761447e-002 
 0.0000000e+000  1.2500000e-001  0.0000000e+000  0.0000000e+000  0.0000000e+000  2.4324872e-002  2.4324872e-002  2.4324872e-002 
 2.5000004e-002  1.2500000e-001  2.9721664e-004 -3.6478834e-003  3.6599715e-003  2.4208333e-002  2.4208333e-002  2.4215031e-002 
 7.5000003e-002  1.2500000e-001 -5.4621170e-003  2.2724401e-003  5.9159705e-003  2.3975257e-002  2.3975257e-002  2.3992756e-002 
 1.2500000e-001  1.2500000e-001 -1.9163586e-002  1.4048505e-002  2.3761388e-002  2.3653457e-002  2.3653457e-002  2.3935759e-002 
 1.7500001e-001  1.2500000e-001 -4.2130008e-002  2.8177435e-002  5.0684370e-002  2.3199897e-002  2.3199897e-002  2.4484349e-002 
 2.2500005e-001  1.2500000e-001 -7.4301377e-002  4.2693336e-002  8.5693732e-002  2.2539683e-002  2.2539683e-002  2.6211390e-002 
 2.7500010e-001  1.2500000e-001 -1.1255311e-001  5.4599512e-002  1.2509720e-001  2.1485690e-002  2.1485690e-002  2.9310346e-002 
 3.2500011e-001  1.2500000e-001 -1.5049644e-001  5.9678543e-002  1.6189721e-001  1.9929990e-002  1.9929990e-002  3.3035342e-002 
 3.7500012e-001  1.2500000e-001 -1.8272410e-001  5.6235351e-002  1.9118188e-001  1.8339016e-002  1.8339016e-002  3.6614273e-002 
 4.2500010e-001  1.2500000e-001 -2.0606545e-001  4.2831630e-002  2.1046975e-001  1.7118530e-002  1.7118530e-002  3.9267290e-002 
 4.7500011e-001  1.2500000e-001 -2.1944790e-001  2.2582738e-002  2.2060680e-001  1.6661292e-002  1.6661292e-002  4.0994972e-002 
 5.2500015e-001  1.2500000e-001 -2.2197667e-001 -2.0311803e-003  2.2198597e-001  1.7515346e-002  1.7515346e-002  4.2154230e-002 
 5.7500029e-001  1.2500000e-001 -2.1530503e-001 -2.7853800e-002  2.1709926e-001  1.9067692e-002  1.9067692e-002  4.2633738e-002 
 6.2500030e-001  1.2500000e-001 -1.9633798e-001 -5.1981509e-002  2.0310263e-001  2.0952161e-002  2.0952161e-002  4.1577503e-002 
 6.7500031e-001  1.2500000e-001 -1.6755264e-001 -7.0188448e-002  1.8165986e-001  2.2676572e-002  2.2676572e-002  3.9176725e-002 
 7.2500044e-001  1.2500000e-001 -1.2864628e-001 -7.7499188e-002  1.5018652e-001  2.3403037e-002  2.3403037e-002  3.4681033e-002 
 7.7500045e-001  1.2500000e-001 -8.3806105e-002 -7.1502112e-002  1.1016358e-001  2.2874277e-002  2.2874277e-002  2.8942285e-002 
 8.2500052e-001  1.2500000e-001 -3.7567478e-002 -4.4643659e-002  5.8346994e-002  2.1670198e-002  2.1670198e-002  2.3372384e-002 
 8.7500066e-001  1.2500000e-001 -2.1111039e-003 -6.6945949e-003  7.0195696e-003  2.0481912e-002  2.0481912e-002  2.0506550e-002 
 9.2500079e-001  1.2500000e-001  8.8345613e-003  1.9168373e-002  2.1106303e-002  1.9885277e-002  1.9885277e-002  2.0108016e-002 
 9.7500038e-001  1.2500000e-001  3.0843746e-003  1.7840182e-002  1.8104848e-002  1.9884646e-002  1.9884646e-002  2.0048538e-002 
 1.0000000e+000  1.2500000e-001  0.0000000e+000  0.0000000e+000  0.0000000e+000  1.9884331e-002  1.9884331e-002  1.9884331e-002 
 0.0000000e+000  1.7500001e-001  0.0000000e+000  0.0000000e+000  0.0000000e+000  2.5025537e-002  2.5025537e-002  2.5025537e-002 
 2.5000004e-002  1.7500001e-001 -1.5156122e-003  2.1391271e-003  2.6216302e-003  2.4817519e-002  2.4817519e-002  2.4820955e-002 
 7.5000003e-002  1.7500001e-001 -1.6603835e-002  1.7381698e-002  2.4037695e-002  2.4401484e-002  2.4401484e-002  2.4690390e-002 
 1.2500000e-001  1.7500001e-001 -4.2135548e-002  3.8876552e-002  5.7330538e-002  2.3918191e-002  2.3918191e-002  2.5561586e-002 
 1.7500001e-001  1.7500001e-001 -7.6952308e-002  6.2631808e-002  9.9218957e-002  2.3081603e-002  2.3081603e-002  2.8003803e-002 
 2.2500005e-001  1.7500001e-001 -1.1878198e-001  8.3069146e-002  1.4494702e-001  2.1635475e-002  2.1635475e-002  3.2140296e-002 
 2.7500010e-001  1.7500001e-001 -1.6080002e-001  9.4788492e-002  1.8665880e-001  1.9366449e-002  1.9366449e-002  3.6787201e-002 
 3.2500011e-001  1.7500001e-001 -1.9854440e-001  9.5259272e-002  2.2021401e-001  1.6355786e-002  1.6355786e-002  4.0602889e-002 
 3.7500012e-001  1.7500001e-001 -2.2852333e-001  8.2516998e-002  2.4296495e-001  1.3489359e-002  1.3489359e-002  4.3005344e-002 
 4.2500010e-001  1.7500001e-001 -2.4983937e-001  6.0130872e-002  2.5697359e-001  1.1059770e-002  1.1059770e-002  4.4077486e-002 
 4.7500011e-001  1.7500001e-001 -2.6291537e-001  3.0735774e-002  2.6470584e-001  9.6862102e-003  9.6862102e-003  4.4720802e-002 
 5.2500015e-001  1.7500001e-001 -2.6719302e-001 -3.2188352e-003  2.6721242e-001  9.8781111e-003  9.8781111e-003  4.5579348e-002 
 5.7500029e-001  1.7500001e-001 -2.6406237e-001 -3.9440762e-002  2.6699159e-001  1.1310747e-002  1.1310747e-002  4.6953004e-002 
 6.2500030e-001  1.7500001e-001 -2.5061959e-001 -7.4351572e-002  2.6141602e-001  1.3631918e-002  1.3631918e-002  4.7801085e-002 
 6.7500031e-001  1.7500001e-001 -2.2753020e-001 -1.0374708e-001  2.5006688e-001  1.6514590e-002  1.6514590e-002  4.7781315e-002 
 7.2500044e-001  1.7500001e-001 -1.9245262e-001 -1.2147807e-001  2.2758500e-001  1.8923288e-002  1.8923288e-002  4.4820756e-002 
 7.7500045e-001  1.7500001e-001 -1.4661247e-001 -1.2236941e-001  1.9096985e-001  1.9888816e-002  1.9888816e-002  3.8123559e-002 
 8.2500052e-001  1.7500001e-001 -9.0763383e-002 -9.4939701e-002  1.3134511e-001  2.0155463e-002  2.0155463e-002  2.8781233e-002 
 8.7500066e-001  1.7500001e-001 -3.3159599e-002 -3.9169654e-002  5.1320765e-002  1.9725654e-002  1.9725654e-002  2.1042565e-002 
 9.2500079e-001  1.7500001e-001  9.5538894e-004  1.1564069e-002  1.1603468e-002  1.9026501e-002  1.9026501e-002  1.9093821e-002 
 9.7500038e-001  1.7500001e-001  3.9420472e-003  2.1807680e-002  2.2161106e-002  1.8602390e-002  1.8602390e-002  1.8847948e-002 
 1.0000000e+000  1.7500001e-001  0.0000000e+000  0.0000000e+000  0.0000000e+000  1.8390337e-002  1.8390337e-002  1.8390337e-002 
 0.0000000e+000  2.2500005e-001  0.0000000e+000  0.0000000e+000  0.0000000e+000  2.5476007e-002  2.5476007e-002  2.5476007e-002 
 2.5000004e-002  2.2500005e-001 -4.2194258e-003  1.5824724e-002  1.6377591e-002  2.5191035e-002  2.5191035e-002  2.5325147e-002 
 7.5000003e-002  2.2500005e-001 -2.9152723e-002  4.3676477e-002  5.2512053e-002  2.4621092e-002  2.4621092e-002  2.5999850e-002 
 1.2500000e-001  2.2500005e-001 -6.4257577e-002  7.4339405e-002  9.8261811e-002  2.3735741e-002  2.3735741e-002  2.8563432e-002 
 1.7500001e-001  2.2500005e-001 -1.0512771e-001  1.0408790e-001  1.4793961e-001  2.1934867e-002  2.1934867e-002  3.2877930e-002 
 2.2500005e-001  2.2500005e-001 -1.4723939e-001  1.2523025e-001  1.9329266e-001  1.9017249e-002  1.9017249e-002  3.7698276e-002 
 2.7500010e-001  2.2500005e-001 -1.8580501e-001  1.3272867e-001  2.2834273e-001  1.4908373e-002  1.4908373e-002  4.0978573e-002 
 3.2500011e-001  2.2500005e-001 -2.1843876e-001  1.2704346e-001  2.5269651e-001  1.0173612e-002  1.0173612e-002  4.2101379e-002 
 3.7500012e-001  2.2500005e-001 -2.4417746e-001  1.0664801e-001  2.6645157e-001  5.7104072e-003  5.7104072e-003  4.1208621e-002 
 4.2500010e-001  2.2500005e-001 -2.6284057e-001  7.6782912e-002  2.7382618e-001  1.9296637e-003  1.9296637e-003  3.9420053e-002 
 4.7500011e-001  2.2500005e-001 -2.7459353e-001  3.9895821e-002  2.7747664e-001 -5.2830135e-004 -5.2830135e-004  3.7968341e-002 
 5.2500015e-001  2.2500005e-001 -2.7963346e-001 -1.0886836e-003  2.7963558e-001 -1.1139355e-003 -1.1139355e-003  3.7984096e-002 
 5.7500029e-001  2.2500005e-001 -2.7947029e-001 -4.5355085e-002  2.8312671e-001 -1.4117479e-004 -1.4117479e-004  3.9939191e-002 
 6.2500030e-001  2.2500005e-001 -2.7322906e-001 -8.8931270e-002  2.8733760e-001  2.5021068e-003  2.5021068e-003  4.3783553e-002 
 6.7500031e-001  2.2500005e-001 -2.5941184e-001 -1.2913360e-001  2.8977576e-001  6.5090377e-003  6.5090377e-003  4.8494034e-002 
 7.2500044e-001  2.2500005e-001 -2.3548950e-001 -1.6030565e-001  2.8487402e-001  1.0929906e-002  1.0929906e-002  5.1506508e-002 
 7.7500045e-001  2.2500005e-001 -1.9691320e-001 -1.7290422e-001  2.6205090e-001  1.4574262e-002  1.4574262e-002  4.8909601e-002 
 8.2500052e-001  2.2500005e-001 -1.4369489e-001 -1.5901113e-001  2.1431929e-001  1.7052678e-002  1.7052678e-002  4.0019058e-002 
 8.7500066e-001  2.2500005e-001 -7.3432103e-002 -9.8179422e-002  1.2260291e-001  1.8484274e-002  1.8484274e-002  2.6000010e-002 
 9.2500079e-001  2.2500005e-001 -9.6033663e-003 -1.5178300e-002  1.7961221e-002  1.8212516e-002  1.8212516e-002  1.8373819e-002 
 9.7500038e-001  2.2500005e-001  7.6697096e-003  2.2846866e-002  2.4099870e-002  1.6793892e-002  1.6793892e-002  1.7084293e-002 
 1.0000000e+000  2.2500005e-001  0.0000000e+000  0.0000000e+000  0.0000000e+000  1.6084587e-002  1.6084587e-002  1.6084587e-002 
 0.0000000e+000  2.7500010e-001  0.0000000e+000  0.0000000e+000  0.0000000e+000  2.5144532e-002  2.5144532e-002  2.5144532e-002 
 2.5000004e-002  2.7500010e-001 -5.3373300e-003  3.5466988e-002  3.5866339e-002  2.4746114e-002  2.4746114e-002  2.5389312e-002 
 7.5000003e-002  2.7500010e-001 -3.5950534e-002  7.6784924e-002  8.4784232e-002  2.3949280e-002  2.3949280e-002  2.7543463e-002 
 1.2500000e-001  2.7500010e-001 -7.4224755e-002  1.1335672e-001  1.3549560e-001  2.2409227e-002  2.2409227e-002  3.1588756e-002 
 1.7500001e-001  2.7500010e-001 -1.1390191e-001  1.4503829e-001  1.8441734e-001  1.9420933e-002  1.9420933e-002  3.6425810e-002 
 2.2500005e-001  2.7500010e-001 -1.5259746e-001  1.6351721e-001  2.2366014e-001  1.4949446e-002  1.4949446e-002  3.9961375e-002 
 2.7500010e-001  2.7500010e-001 -1.8715575e-001  1.6619639e-001  2.5029686e-001  8.8687558e-003  8.8687558e-003  4.0193014e-002 
 3.2500011e-001  2.7500010e-001 -2.1572302e-001  1.5427719e-001  2.6521289e-001  2.3508475e-003  2.3508475e-003  3.7519783e-002 
 3.7500012e-001  2.7500010e-001 -2.3616239e-001  1.2664509e-001  2.6797697e-001 -3.9548920e-003 -3.9548920e-003  3.1950936e-002 
 4.2500010e-001  2.7500010e-001 -2.4939145e-001  9.0149499e-002  2.6518491e-001 -9.0919854e-003 -9.0919854e-003  2.6069529e-002 
 4.7500011e-001  2.7500010e-001 -2.5726989e-001  4.7598213e-002  2.6163599e-001 -1.2491892e-002 -1.2491892e-002  2.1734800e-002 
 5.2500015e-001  2.7500010e-001 -2.6179442e-001  2.0457441e-003  2.6180241e-001 -1.4008825e-002 -1.4008825e-002  2.0261427e-002 
 5.7500029e-001  2.7500010e-001 -2.6392081e-001 -4.6082322e-002  2.6791376e-001 -1.3294538e-002 -1.3294538e-002  2.2594349e-002 
 6.2500030e-001  2.7500010e-001 -2.6377299e-001 -9.4722643e-002  2.8026518e-001 -1.0692396e-002 -1.0692396e-002  2.8581889e-002 
 6.7500031e-001  2.7500010e-001 -2.5955534e-001 -1.4276531e-001  2.9622781e-001 -6.4370106e-003 -6.4370106e-003  3.7438445e-002 
 7.2500044e-001  2.7500010e-001 -2.4690655e-001 -1.8583597e-001  3.0902725e-001 -5.1561411e-004 -5.1561411e-004  4.7233313e-002 
 7.7500045e-001  2.7500010e-001 -2.2290082e-001 -2.1505085e-001  3.0972832e-001  6.2133330e-003  6.2133330e-003  5.4179154e-002 
 8.2500052e-001  2.7500010e-001 -1.8157566e-001 -2.1859887e-001  2.8417456e-001  1.1392290e-002  1.1392290e-002  5.1769882e-002 
 8.7500066e-001  2.7500010e-001 -1.1711521e-001 -1.7565458e-001  2.1111727e-001  1.5311198e-002  1.5311198e-002  3.7596449e-002 
 9.2500079e-001  2.7500010e-001 -3.2220468e-002 -6.8474621e-002  7.5676501e-002  1.6679049e-002  1.6679049e-002  1.9542515e-002 
 9.7500038e-001  2.7500010e-001  1.0278692e-002  1.8739326e-002  2.1373203e-002  1.4043829e-002  1.4043829e-002  1.4272236e-002 
 1.0000000e+000  2.7500010e-001  0.0000000e+000  0.0000000e+000  0.0000000e+000  1.2726232e-002  1.2726232e-002  1.2726232e-002 
 0.0000000e+000  3.2500011e-001  0.0000000e+000  0.0000000e+000  0.0000000e+000  2.3584442e-002  2.3584442e-002  2.3584442e-002 
 2.5000004e-002  3.2500011e-001 -4.7991849e-003  5.7236351e-002  5.7437200e-002  2.3088731e-002  2.3088731e-002  2.4738247e-002 
 7.5000003e-002  3.2500011e-001 -3.6141023e-002  1.1167593e-001  1.1737839e-001  2.2097308e-002  2.2097308e-002  2.8986152e-002 
 1.2500000e-001  3.2500011e-001 -7.3613234e-002  1.5158939e-001  1.6851781e-001  1.9936413e-002  1.9936413e-002  3.4135539e-002 
 1.7500001e-001  3.2500011e-001 -1.1047319e-001  1.8250689e-001  2.1333797e-001  1.5672654e-002  1.5672654e-002  3.8429197e-002 
 2.2500005e-001  3.2500011e-001 -1.4395295e-001  1.9722383e-001  2.4417144e-001  9.4338870e-003  9.4338870e-003  3.9243732e-002 
 2.7500010e-001  3.2500011e-001 -1.7262556e-001  1.9558898e-001  2.6087281e-001  1.4803712e-003  1.4803712e-003  3.5507686e-002 
 3.2500011e-001  3.2500011e-001 -1.9383839e-001  1.7521408e-001  2.6129159e-001 -6.6419290e-003 -6.6419290e-003  2.7494719e-002 
 3.7500012e-001  3.2500011e-001 -2.0651840e-001  1.4028278e-001  2.4965797e-001 -1.4161647e-002 -1.4161647e-002  1.7002907e-002 
 4.2500010e-001  3.2500011e-001 -2.1337005e-001  9.8219708e-002  2.3489124e-001 -2.0053994e-002 -2.0053994e-002  7.5329519e-003 
 4.7500011e-001  3.2500011e-001 -2.1672879e-001  5.2401021e-002  2.2297361e-001 -2.3949021e-002 -2.3949021e-002  9.0959657e-004 
 5.2500015e-001  3.2500011e-001 -2.1902736e-001  5.2623306e-003  2.1909057e-001 -2.5701070e-002 -2.5701070e-002 -1.7007330e-003 
 5.7500029e-001  3.2500011e-001 -2.2182503e-001 -4.2748507e-002  2.2590658e-001 -2.5353123e-002 -2.5353123e-002  1.6376766e-004 
 6.2500030e-001  3.2500011e-001 -2.2559473e-001 -9.2728712e-002  2.4390899e-001 -2.2986282e-002 -2.2986282e-002  6.7595164e-003 
 6.7500031e-001  3.2500011e-001 -2.2951253e-001 -1.4446928e-001  2.7119619e-001 -1.8731775e-002 -1.8731775e-002  1.8041911e-002 
 7.2500044e-001  3.2500011e-001 -2.3070063e-001 -1.9579339e-001  3.0258524e-001 -1.2547918e-002 -1.2547918e-002  3.3230998e-002 
 7.7500045e-001  3.2500011e-001 -2.2298235e-001 -2.4108624e-001  3.2839566e-001 -4.9129198e-003 -4.9129198e-003  4.9008932e-002 
 8.2500052e-001  3.2500011e-001 -1.9643393e-001 -2.6459846e-001  3.2954305e-001  3.2033501e-003  3.2033501e-003  5.7502668e-002 
 8.7500066e-001  3.2500011e-001 -1.4888784e-001 -2.4828747e-001  2.8950691e-001  9.5010102e-003  9.5010102e-003  5.1408138e-002 
 9.2500079e-001  3.2500011e-001 -6.6518657e-002 -1.4978924e-001  1.6389494e-001  1.3499143e-002  1.3499143e-002  2.6929917e-002 
 9.7500038e-001  3.2500011e-001  5.1484206e-003  2.8248110e-003  5.8724605e-003  1.0557684e-002  1.0557684e-002  1.0574927e-002 
 1.0000000e+000  3.2500011e-001  0.0000000e+000  0.0000000e+000  0.0000000e+000  9.0869693e-003  9.0869693e-003  9.0869693e-003 
 0.0000000e+000  3.7500012e-001  0.0000000e+000  0.0000000e+000  0.0000000e+000  2.0910554e-002  2.0910554e-002  2.0910554e-002 
 2.5000004e-002  3.7500012e-001 -2.8420680e-003  7.7540524e-002  7.7592589e-002  2.0319035e-002  2.0319035e-002  2.3329340e-002 
 7.5000003e-002  3.7500012e-001 -3.1629369e-002  1.4454415e-001  1.4796428e-001  1.9135999e-002  1.9135999e-002  3.0082714e-002 
 1.2500000e-001  3.7500012e-001 -6.4993277e-002  1.8617110e-001  1.9718976e-001  1.6278883e-002  1.6278883e-002  3.5720784e-002 
 1.7500001e-001  3.7500012e-001 -9.6131608e-002  2.1483412e-001  2.3536140e-001  1.0855649e-002  1.0855649e-002  3.8553141e-002 
 2.2500005e-001  3.7500012e-001 -1.2314477e-001  2.2483681e-001  2.5635177e-001  3.2259028e-003  3.2259028e-003  3.6084015e-002 
 2.7500010e-001  3.7500012e-001 -1.4465357e-001  2.1680470e-001  2.6063180e-001 -5.9504220e-003 -5.9504220e-003  2.8014045e-002 
 3.2500011e-001  3.7500012e-001 -1.5835349e-001  1.8840325e-001  2.4611300e-001 -1.5134137e-002 -1.5134137e-002  1.5151669e-002 
 3.7500012e-001  3.7500012e-001 -1.6478336e-001  1.4709958e-001  2.2088876e-001 -2.3154836e-002 -2.3154836e-002  1.2410854e-003 
 4.2500010e-001  3.7500012e-001 -1.6727661e-001  1.0123136e-001  1.9552302e-001 -2.9212369e-002 -2.9212369e-002 -1.0097743e-002 
 4.7500011e-001  3.7500012e-001 -1.6819483e-001  5.4406036e-002  1.7677534e-001 -3.3139791e-002 -3.3139791e-002 -1.7515032e-002 
 5.2500015e-001  3.7500012e-001 -1.6955055e-001  8.0243507e-003  1.6974033e-001 -3.4940131e-002 -3.4940131e-002 -2.0534242e-002 
 5.7500029e-001  3.7500012e-001 -1.7210360e-001 -3.8475379e-002  1.7635193e-001 -3.4779787e-002 -3.4779787e-002 -1.9229785e-002 
 6.2500030e-001  3.7500012e-001 -1.7622600e-001 -8.6348355e-002  1.9624384e-001 -3.2747615e-002 -3.2747615e-002 -1.3491794e-002 
 6.7500031e-001  3.7500012e-001 -1.8256199e-001 -1.3692360e-001  2.2820376e-001 -2.8848134e-002 -2.8848134e-002 -2.8096577e-003 
 7.2500044e-001  3.7500012e-001 -1.9086292e-001 -1.9176231e-001  2.7055764e-001 -2.3098780e-002 -2.3098780e-002  1.3501940e-002 
 7.7500045e-001  3.7500012e-001 -1.9623500e-001 -2.4745721e-001  3.1582153e-001 -1.5275735e-002 -1.5275735e-002  3.4595888e-002 
 8.2500052e-001  3.7500012e-001 -1.9120523e-001 -2.9356539e-001  3.5034281e-001 -6.0351361e-003 -6.0351361e-003  5.5334903e-002 
 8.7500066e-001  3.7500012e-001 -1.6045338e-001 -3.0311394e-001  3.4296259e-001  2.2210642e-003  2.2210642e-003  6.1032739e-002 
 9.2500079e-001  3.7500012e-001 -9.6694686e-002 -2.3489325e-001  2.5401711e-001  8.7732039e-003  8.7732039e-003  4.1035555e-002 
 9.7500038e-001  3.7500012e-001 -1.2720777e-002 -3.3160977e-002  3.5517160e-002  7.5821052e-003  7.5821052e-003  8.2128393e-003 
 1.0000000e+000  3.7500012e-001  0.0000000e+000  0.0000000e+000  0.0000000e+000  6.9865608e-003  6.9865608e-003  6.9865608e-003 
 0.0000000e+000  4.2500010e-001  0.0000000e+000  0.0000000e+000  0.0000000e+000  1.7467219e-002  1.7467219e-002  1.7467219e-002 
 2.5000004e-002  4.2500010e-001  7.7581746e-005  9.3528681e-002  9.3528710e-002  1.6814873e-002  1.6814873e-002  2.1188682e-002 
 7.5000003e-002  4.2500010e-001 -2.3026509e-002  1.7250498e-001  1.7403501e-001  1.5510177e-002  1.5510177e-002  3.0654270e-002 
 1.2500000e-001  4.2500010e-001 -4.9881078e-002  2.1511976e-001  2.2082716e-001  1.2087518e-002  1.2087518e-002  3.6469836e-002 
 1.7500001e-001  4.2500010e-001 -7.3887758e-002  2.4066950e-001  2.5175625e-001  5.8665886e-003  5.8665886e-003  3.7557192e-002 
 2.2500005e-001  4.2500010e-001 -9.3934484e-002  2.4537110e-001  2.6273689e-001 -2.7189844e-003 -2.7189844e-003  3.1796347e-002 
 2.7500010e-001  4.2500010e-001 -1.0875518e-001  2.3109819e-001  2.5540960e-001 -1.2566684e-002 -1.2566684e-002  2.0050347e-002 
 3.2500011e-001  4.2500010e-001 -1.1678690e-001  1.9580868e-001  2.2799172e-001 -2.2174435e-002 -2.2174435e-002  3.8156752e-003 
 3.7500012e-001  4.2500010e-001 -1.1985683e-001  1.4996858e-001  1.9197978e-001 -3.0192006e-002 -3.0192006e-002 -1.1763888e-002 
 4.2500010e-001  4.2500010e-001 -1.2117083e-001  1.0227121e-001  1.5856156e-001 -3.6067706e-002 -3.6067706e-002 -2.3496822e-002 
 4.7500011e-001  4.2500010e-001 -1.2259573e-001  5.5466957e-002  1.3455963e-001 -3.9824612e-002 -3.9824612e-002 -3.0771464e-002 
 5.2500015e-001  4.2500010e-001 -1.2490334e-001  9.8616136e-003  1.2529205e-001 -4.1599259e-002 -4.1599259e-002 -3.3750210e-002 
 5.7500029e-001  4.2500010e-001 -1.2807478e-001 -3.5498228e-002  1.3290325e-001 -4.1530125e-002 -4.1530125e-002 -3.2698490e-002 
 6.2500030e-001  4.2500010e-001 -1.3213021e-001 -8.1576481e-002  1.5528397e-001 -3.9709687e-002 -3.9709687e-002 -2.7653130e-002 
 6.7500031e-001  4.2500010e-001 -1.3761392e-001 -1.2932317e-001  1.8884404e-001 -3.6169056e-002 -3.6169056e-002 -1.8338019e-002 
 7.2500044e-001  4.2500010e-001 -1.4591755e-001 -1.8094736e-001  2.3245189e-001 -3.0937117e-002 -3.0937117e-002 -3.9201770e-003 
 7.7500045e-001  4.2500010e-001 -1.5798073e-001 -2.4009216e-001  2.8740591e-001 -2.3949306e-002 -2.3949306e-002  1.7351771e-002 
 8.2500052e-001  4.2500010e-001 -1.6533737e-001 -3.0087826e-001  3.4331352e-001 -1.4647586e-002 -1.4647586e-002  4.4284500e-002 
 8.7500066e-001  4.2500010e-001 -1.5675113e-001 -3.3883369e-001  3.7333521e-001 -4.4549000e-003 -4.4549000e-003  6.5234691e-002 
 9.2500079e-001  4.2500010e-001 -1.1166205e-001 -3.0726856e-001  3.2692870e-001  3.8328040e-003  3.8328040e-003  5.7273995e-002 
 9.7500038e-001  4.2500010e-001 -3.6811393e-002 -9.5280237e-002  1.0214403e-001  6.1401534e-003  6.1401534e-003  1.1356855e-002 
 1.0000000e+000  4.2500010e-001  0.0000000e+000  0.0000000e+000  0.0000000e+000  7.2938167e-003  7.2938167e-003  7.2938167e-003 
 0.0000000e+000  4.7500011e-001  0.0000000e+000  0.0000000e+000  0.0000000e+000  1.3752948e-002  1.3752948e-002  1.3752948e-002 
 2.5000004e-002  4.7500011e-001  3.3375239e-003  1.0279100e-001  1.0284517e-001  1.3105066e-002  1.3105066e-002  1.8393630e-002 
 7.5000003e-002  4.7500011e-001 -1.1666082e-002  1.9275548e-001  1.9310819e-001  1.1809301e-002  1.1809301e-002  3.0454686e-002 
 1.2500000e-001  4.7500011e-001 -3.0543510e-002  2.3614281e-001  2.3810992e-001  7.9976376e-003  7.9976376e-003  3.6345806e-002 
 1.7500001e-001  4.7500011e-001 -4.6977568e-002  2.5847742e-001  2.6271176e-001  1.3671590e-003  1.3671590e-003  3.5875894e-002 
 2.2500005e-001  4.7500011e-001 -6.0281880e-002  2.5954336e-001  2.6645198e-001 -7.6355208e-003 -7.6355208e-003  2.7862810e-002 
 2.7500010e-001  4.7500011e-001 -6.9536075e-002  2.3984714e-001  2.4972367e-001 -1.7688407e-002 -1.7688407e-002  1.3492551e-002 
 3.2500011e-001  4.7500011e-001 -7.3849984e-002  2.0011523e-001  2.1330711e-001 -2.7322408e-002 -2.7322408e-002 -4.5724446e-003 
 3.7500012e-001  4.7500011e-001 -7.5833321e-002  1.5196718e-001  1.6983733e-001 -3.5166293e-002 -3.5166293e-002 -2.0743934e-002 