Variables = "x","y", "Velocity_x", "Velocity_y", "Velocity_whole value", "Pressure", "Absolute pressure", "Total pressure"
Zone i=42, j=42
 0.0000000e+000  0.0000000e+000  0.0000000e+000  0.0000000e+000  0.0000000e+000  2.1113189e-002  2.1113189e-002  2.1113189e-002 
 1.2499990e-002  0.0000000e+000  0.0000000e+000  0.0000000e+000  0.0000000e+000  2.1122698e-002  2.1122698e-002  2.1122698e-002 
 3.7499964e-002  0.0000000e+000  0.0000000e+000  0.0000000e+000  0.0000000e+000  2.1141715e-002  2.1141715e-002  2.1141715e-002 
 6.2499940e-002  0.0000000e+000  0.0000000e+000  0.0000000e+000  0.0000000e+000  2.1057304e-002  2.1057304e-002  2.1057304e-002 
 8.7499917e-002  0.0000000e+000  0.0000000e+000  0.0000000e+000  0.0000000e+000  2.0873636e-002  2.0873636e-002  2.0873636e-002 
 1.1249990e-001  0.0000000e+000  0.0000000e+000  0.0000000e+000  0.0000000e+000  2.0618338e-002  2.0618338e-002  2.0618338e-002 
 1.3749990e-001  0.0000000e+000  0.0000000e+000  0.0000000e+000  0.0000000e+000  2.0301828e-002  2.0301828e-002  2.0301828e-002 
 1.6249985e-001  0.0000000e+000  0.0000000e+000  0.0000000e+000  0.0000000e+000  1.9939905e-002  1.9939905e-002  1.9939905e-002 
 1.8749979e-001  0.0000000e+000  0.0000000e+000  0.0000000e+000  0.0000000e+000  1.9529091e-002  1.9529091e-002  1.9529091e-002 
 2.1249980e-001  0.0000000e+000  0.0000000e+000  0.0000000e+000  0.0000000e+000  1.9063903e-002  1.9063903e-002  1.9063903e-002 
 2.3749980e-001  0.0000000e+000  0.0000000e+000  0.0000000e+000  0.0000000e+000  1.8541941e-002  1.8541941e-002  1.8541941e-002 
 2.6249984e-001  0.0000000e+000  0.0000000e+000  0.0000000e+000  0.0000000e+000  1.7968114e-002  1.7968114e-002  1.7968114e-002 
 2.8749990e-001  0.0000000e+000  0.0000000e+000  0.0000000e+000  0.0000000e+000  1.7357649e-002  1.7357649e-002  1.7357649e-002 
 3.1249988e-001  0.0000000e+000  0.0000000e+000  0.0000000e+000  0.0000000e+000  1.6738171e-002  1.6738171e-002  1.6738171e-002 
 3.3749995e-001  0.0000000e+000  0.0000000e+000  0.0000000e+000  0.0000000e+000  1.6151013e-002  1.6151013e-002  1.6151013e-002 
 3.6250001e-001  0.0000000e+000  0.0000000e+000  0.0000000e+000  0.0000000e+000  1.5651437e-002  1.5651437e-002  1.5651437e-002 
 3.8749999e-001  0.0000000e+000  0.0000000e+000  0.0000000e+000  0.0000000e+000  1.5301740e-002  1.5301740e-002  1.5301740e-002 
 4.1250005e-001  0.0000000e+000  0.0000000e+000  0.0000000e+000  0.0000000e+000  1.5161331e-002  1.5161331e-002  1.5161331e-002 
 4.3750012e-001  0.0000000e+000  0.0000000e+000  0.0000000e+000  0.0000000e+000  1.5289964e-002  1.5289964e-002  1.5289964e-002 
 4.6250010e-001  0.0000000e+000  0.0000000e+000  0.0000000e+000  0.0000000e+000  1.5722280e-002  1.5722280e-002  1.5722280e-002 
 4.8750013e-001  0.0000000e+000  0.0000000e+000  0.0000000e+000  0.0000000e+000  1.6456608e-002  1.6456608e-002  1.6456608e-002 
 5.1250017e-001  0.0000000e+000  0.0000000e+000  0.0000000e+000  0.0000000e+000  1.7437380e-002  1.7437380e-002  1.7437380e-002 
 5.3750026e-001  0.0000000e+000  0.0000000e+000  0.0000000e+000  0.0000000e+000  1.8627137e-002  1.8627137e-002  1.8627137e-002 
 5.6250030e-001  0.0000000e+000  0.0000000e+000  0.0000000e+000  0.0000000e+000  1.9909970e-002  1.9909970e-002  1.9909970e-002 
 5.8750033e-001  0.0000000e+000  0.0000000e+000  0.0000000e+000  0.0000000e+000  2.1123229e-002  2.1123229e-002  2.1123229e-002 
 6.1250037e-001  0.0000000e+000  0.0000000e+000  0.0000000e+000  0.0000000e+000  2.2132797e-002  2.2132797e-002  2.2132797e-002 
 6.3750041e-001  0.0000000e+000  0.0000000e+000  0.0000000e+000  0.0000000e+000  2.2803087e-002  2.2803087e-002  2.2803087e-002 
 6.6250038e-001  0.0000000e+000  0.0000000e+000  0.0000000e+000  0.0000000e+000  2.3032837e-002  2.3032837e-002  2.3032837e-002 
 6.8750048e-001  0.0000000e+000  0.0000000e+000  0.0000000e+000  0.0000000e+000  2.2781342e-002  2.2781342e-002  2.2781342e-002 
 7.1250051e-001  0.0000000e+000  0.0000000e+000  0.0000000e+000  0.0000000e+000  2.2058165e-002  2.2058165e-002  2.2058165e-002 
 7.3750049e-001  0.0000000e+000  0.0000000e+000  0.0000000e+000  0.0000000e+000  2.0953653e-002  2.0953653e-002  2.0953653e-002 
 7.6250052e-001  0.0000000e+000  0.0000000e+000  0.0000000e+000  0.0000000e+000  1.9624280e-002  1.9624280e-002  1.9624280e-002 
 7.8750062e-001  0.0000000e+000  0.0000000e+000  0.0000000e+000  0.0000000e+000  1.8247319e-002  1.8247319e-002  1.8247319e-002 
 8.1250060e-001  0.0000000e+000  0.0000000e+000  0.0000000e+000  0.0000000e+000  1.6964966e-002  1.6964966e-002  1.6964966e-002 
 8.3750063e-001  0.0000000e+000  0.0000000e+000  0.0000000e+000  0.0000000e+000  1.5927082e-002  1.5927082e-002  1.5927082e-002 
 8.6250067e-001  0.0000000e+000  0.0000000e+000  0.0000000e+000  0.0000000e+000  1.5135737e-002  1.5135737e-002  1.5135737e-002 
 8.8750076e-001  0.0000000e+000  0.0000000e+000  0.0000000e+000  0.0000000e+000  1.4595772e-002  1.4595772e-002  1.4595772e-002 
 9.1250080e-001  0.0000000e+000  0.0000000e+000  0.0000000e+000  0.0000000e+000  1.4277787e-002  1.4277787e-002  1.4277787e-002 
 9.3750083e-001  0.0000000e+000  0.0000000e+000  0.0000000e+000  0.0000000e+000  1.4139926e-002  1.4139926e-002  1.4139926e-002 
 9.6250087e-001  0.0000000e+000  0.0000000e+000  0.0000000e+000  0.0000000e+000  1.4149548e-002  1.4149548e-002  1.4149548e-002 
 9.8750043e-001  0.0000000e+000  0.0000000e+000  0.0000000e+000  0.0000000e+000  1.4266126e-002  1.4266126e-002  1.4266126e-002 
 1.0000000e+000  0.0000000e+000  0.0000000e+000  0.0000000e+000  0.0000000e+000  1.4324414e-002  1.4324414e-002  1.4324414e-002 
 0.0000000e+000  1.2499990e-002  0.0000000e+000  0.0000000e+000  0.0000000e+000  2.1104451e-002  2.1104451e-002  2.1104451e-002 
 1.2499990e-002  1.2499990e-002  1.2830029e-004 -1.2350363e-004  1.7808456e-004  2.1113243e-002  2.1113243e-002  2.1113260e-002 
 3.7499964e-002  1.2499990e-002  8.4613630e-004 -3.2445756e-004  9.0621156e-004  2.1130826e-002  2.1130826e-002  2.1131236e-002 
 6.2499940e-002  1.2499990e-002  1.8199516e-003 -3.1831797e-004  1.8475795e-003  2.1047587e-002  2.1047587e-002  2.1049293e-002 
 8.7499917e-002  1.2499990e-002  2.5579436e-003 -2.3808633e-004  2.5690000e-003  2.0872721e-002  2.0872721e-002  2.0876022e-002 
 1.1249990e-001  1.2499990e-002  2.8671783e-003 -1.5066135e-004  2.8711339e-003  2.0631952e-002  2.0631952e-002  2.0636074e-002 
 1.3749990e-001  1.2499990e-002  2.7178777e-003 -1.0357767e-004  2.7198507e-003  2.0337287e-002  2.0337287e-002  2.0340987e-002 
 1.6249985e-001  1.2499990e-002  2.1275515e-003 -7.5331161e-005  2.1288847e-003  1.9998902e-002  1.9998902e-002  2.0001169e-002 
 1.8749979e-001  1.2499990e-002  1.1131201e-003 -5.4093154e-005  1.1144337e-003  1.9613504e-002  1.9613504e-002  1.9614125e-002 
 2.1249980e-001  1.2499990e-002 -3.5306922e-004 -2.4025878e-005  3.5388573e-004  1.9175487e-002  1.9175487e-002  1.9175550e-002 
 2.3749980e-001  1.2499990e-002 -2.3306126e-003  2.8194478e-005  2.3307831e-003  1.8681929e-002  1.8681929e-002  1.8684644e-002 
 2.6249984e-001  1.2499990e-002 -4.8887958e-003  1.1099235e-004  4.8900554e-003  1.8136514e-002  1.8136514e-002  1.8148471e-002 
 2.8749990e-001  1.2499990e-002 -8.0814129e-003  2.2877098e-004  8.0846502e-003  1.7552314e-002  1.7552314e-002  1.7584994e-002 
 3.1249988e-001  1.2499990e-002 -1.1925424e-002  3.8385481e-004  1.1931601e-002  1.6953772e-002  1.6953772e-002  1.7024953e-002 
 3.3749995e-001  1.2499990e-002 -1.6383046e-002  5.7609845e-004  1.6393172e-002  1.6378131e-002  1.6378131e-002  1.6512498e-002 
 3.6250001e-001  1.2499990e-002 -2.1344483e-002  8.0169796e-004  2.1359533e-002  1.5875023e-002  1.5875023e-002  1.6103137e-002 
 3.8749999e-001  1.2499990e-002 -2.6619909e-002  1.0407214e-003  2.6640246e-002  1.5502328e-002  1.5502328e-002  1.5857179e-002 
 4.1250005e-001  1.2499990e-002 -3.1936776e-002  1.2517910e-003  3.1961299e-002  1.5322004e-002  1.5322004e-002  1.5832767e-002 
 4.3750012e-001  1.2499990e-002 -3.6947183e-002  1.4028444e-003  3.6973804e-002  1.5391223e-002  1.5391223e-002  1.6074754e-002 
 4.6250010e-001  1.2499990e-002 -4.1234393e-002  1.4371390e-003  4.1259430e-002  1.5750352e-002  1.5750352e-002  1.6601523e-002 
 4.8750013e-001  1.2499990e-002 -4.4335049e-002  1.2740921e-003  4.4353351e-002  1.6411493e-002  1.6411493e-002  1.7395103e-002 
 5.1250017e-001  1.2499990e-002 -4.5871980e-002  9.2451839e-004  4.5881297e-002  1.7330823e-002  1.7330823e-002  1.8383371e-002 
 5.3750026e-001  1.2499990e-002 -4.5690682e-002  5.2597380e-004  4.5693710e-002  1.8458638e-002  1.8458638e-002  1.9502595e-002 
 5.6250030e-001  1.2499990e-002 -4.3489598e-002  6.8155816e-005  4.3489650e-002  1.9676222e-002  1.9676222e-002  2.0621896e-002 
 5.8750033e-001  1.2499990e-002 -3.9301548e-002 -4.8363599e-004  3.9304525e-002  2.0846266e-002  2.0846266e-002  2.1618688e-002 
 6.1250037e-001  1.2499990e-002 -3.3310834e-002 -1.0097726e-003  3.3326134e-002  2.1827970e-002  2.1827970e-002  2.2383286e-002 
 6.3750041e-001  1.2499990e-002 -2.5882777e-002 -1.4155337e-003  2.5921457e-002  2.2483405e-002  2.2483405e-002  2.2819366e-002 
 6.6250038e-001  1.2499990e-002 -1.7566372e-002 -1.6302615e-003  1.7641859e-002  2.2710240e-002  2.2710240e-002  2.2865858e-002 
 6.8750048e-001  1.2499990e-002 -8.9982906e-003 -1.6360850e-003  9.1458196e-003  2.2467192e-002  2.2467192e-002  2.2509016e-002 
 7.1250051e-001  1.2499990e-002 -8.6961145e-004 -1.3987371e-003  1.6470244e-003  2.1765415e-002  2.1765415e-002  2.1766771e-002 
 7.3750049e-001  1.2499990e-002  6.0549895e-003 -9.1057859e-004  6.1230753e-003  2.0691736e-002  2.0691736e-002  2.0710481e-002 
 7.6250052e-001  1.2499990e-002  1.1123746e-002 -3.0590477e-004  1.1127952e-002  1.9405648e-002  1.9405648e-002  1.9467564e-002 
 7.8750062e-001  1.2499990e-002  1.4040385e-002  2.5329841e-004  1.4042670e-002  1.8084919e-002  1.8084919e-002  1.8183518e-002 
 8.1250060e-001  1.2499990e-002  1.4827252e-002  6.2758179e-004  1.4840528e-002  1.6873220e-002  1.6873220e-002  1.6983341e-002 
 8.3750063e-001  1.2499990e-002  1.3924656e-002  8.8956923e-004  1.3953042e-002  1.5889663e-002  1.5889663e-002  1.5987007e-002 
 8.6250067e-001  1.2499990e-002  1.1862453e-002  9.5151679e-004  1.1900553e-002  1.5150080e-002  1.5150080e-002  1.5220892e-002 
 8.8750076e-001  1.2499990e-002  9.1547258e-003  8.8162144e-004  9.1970786e-003  1.4649280e-002  1.4649280e-002  1.4691574e-002 
 9.1250080e-001  1.2499990e-002  6.2496709e-003  7.5531041e-004  6.2951474e-003  1.4351875e-002  1.4351875e-002  1.4371689e-002 
 9.3750083e-001  1.2499990e-002  3.4732355e-003  6.0964283e-004  3.5263337e-003  1.4215169e-002  1.4215169e-002  1.4221386e-002 
 9.6250087e-001  1.2499990e-002  1.1625884e-003  3.8857904e-004  1.2258081e-003  1.4212538e-002  1.4212538e-002  1.4213290e-002 
 9.8750043e-001  1.2499990e-002 -3.4017212e-005 -4.5207758e-005  5.6576602e-005  1.4326706e-002  1.4326706e-002  1.4326707e-002 
 1.0000000e+000  1.2499990e-002  0.0000000e+000  0.0000000e+000  0.0000000e+000  1.4383788e-002  1.4383788e-002  1.4383788e-002 
 0.0000000e+000  3.7499964e-002  0.0000000e+000  0.0000000e+000  0.0000000e+000  2.1086974e-002  2.1086974e-002  2.1086974e-002 
 1.2499990e-002  3.7499964e-002  3.5244972e-004 -8.5447350e-004  9.2430826e-004  2.1094333e-002  2.1094333e-002  2.1094760e-002 
 3.7499964e-002  3.7499964e-002  1.7099133e-003 -1.6791875e-003  2.3965547e-003  2.1109050e-002  2.1109050e-002  2.1111922e-002 
 6.2499940e-002  3.7499964e-002  3.2425062e-003 -1.5454200e-003  3.5919589e-003  2.1028152e-002  2.1028152e-002  2.1034602e-002 
 8.7499917e-002  3.7499964e-002  4.1193515e-003 -8.9258986e-004  4.2149466e-003  2.0870892e-002  2.0870892e-002  2.0879775e-002 
 1.1249990e-001  3.7499964e-002  3.9299154e-003 -4.5735560e-005  3.9301813e-003  2.0659178e-002  2.0659178e-002  2.0666901e-002 
 1.3749990e-001  3.7499964e-002  2.5282172e-003  8.1362162e-004  2.6559108e-003  2.0408204e-002  2.0408204e-002  2.0411732e-002 
 1.6249985e-001  3.7499964e-002 -1.3428128e-004  1.6617884e-003  1.6672049e-003  2.0116895e-002  2.0116895e-002  2.0118285e-002 
 1.8749979e-001  3.7499964e-002 -4.1199690e-003  2.5412443e-003  4.8406678e-003  1.9782329e-002  1.9782329e-002  1.9794045e-002 
 2.1249980e-001  3.7499964e-002 -9.5230984e-003  3.5122347e-003  1.0150133e-002  1.9398650e-002  1.9398650e-002  1.9450163e-002 
 2.3749980e-001  3.7499964e-002 -1.6457262e-002  4.6087606e-003  1.7090410e-002  1.8961903e-002  1.8961903e-002  1.9107943e-002 
 2.6249984e-001  3.7499964e-002 -2.4998428e-002  5.8196248e-003  2.5666894e-002  1.8473312e-002  1.8473312e-002  1.8802706e-002 
 2.8749990e-001  3.7499964e-002 -3.5122100e-002  7.0877499e-003  3.5830129e-002  1.7941644e-002  1.7941644e-002  1.8583544e-002 
 3.1249988e-001  3.7499964e-002 -4.6652976e-002  8.3183637e-003  4.7388770e-002  1.7384974e-002  1.7384974e-002  1.8507821e-002 
 3.3749995e-001  3.7499964e-002 -5.9235573e-002  9.3835387e-003  5.9974194e-002  1.6832367e-002  1.6832367e-002  1.8630819e-002 
 3.6250001e-001  3.7499964e-002 -7.2326124e-002  1.0117260e-002  7.3030315e-002  1.6322196e-002  1.6322196e-002  1.8988909e-002 
 3.8749999e-001  3.7499964e-002 -8.5215233e-002  1.0340442e-002  8.5840322e-002  1.5903505e-002  1.5903505e-002  1.9587785e-002 
 4.1250005e-001  3.7499964e-002 -9.7121477e-002  9.9368319e-003  9.7628489e-002  1.5643351e-002  1.5643351e-002  2.0409012e-002 
 4.3750012e-001  3.7499964e-002 -1.0719849e-001  8.7764999e-003  1.0755716e-001  1.5593740e-002  1.5593740e-002  2.1378012e-002 
 4.6250010e-001  3.7499964e-002 -1.1471967e-001  6.8293130e-003  1.1492276e-001  1.5806496e-002  1.5806496e-002  2.2410117e-002 
 4.8750013e-001  3.7499964e-002 -1.1902769e-001  4.0878793e-003  1.1909787e-001  1.6321262e-002  1.6321262e-002  2.3413412e-002 
 5.1250017e-001  3.7499964e-002 -1.1973510e-001  8.7477028e-004  1.1973830e-001  1.7117713e-002  1.7117713e-002  2.4286343e-002 
 5.3750026e-001  3.7499964e-002 -1.1683097e-001 -2.4919959e-003  1.1685754e-001  1.8121643e-002  1.8121643e-002  2.4949485e-002 
 5.6250030e-001  3.7499964e-002 -1.1005337e-001 -6.0465839e-003  1.1021935e-001  1.9208724e-002  1.9208724e-002  2.5282877e-002 
 5.8750033e-001  3.7499964e-002 -9.9759817e-002 -9.4160363e-003  1.0020321e-001  2.0292342e-002  2.0292342e-002  2.5312683e-002 
 6.1250037e-001  3.7499964e-002 -8.6349711e-002 -1.2290301e-002  8.7219976e-002  2.1218313e-002  2.1218313e-002  2.5021976e-002 
 6.3750041e-001  3.7499964e-002 -7.0470504e-002 -1.4359811e-002  7.1918681e-002  2.1844041e-002  2.1844041e-002  2.4430189e-002 
 6.6250038e-001  3.7499964e-002 -5.2979160e-002 -1.5370882e-002  5.5163898e-002  2.2065047e-002  2.2065047e-002  2.3586575e-002 
 6.8750048e-001  3.7499964e-002 -3.4912873e-002 -1.5263042e-002  3.8103402e-002  2.1838892e-002  2.1838892e-002  2.2564827e-002 
 7.1250051e-001  3.7499964e-002 -1.7358989e-002 -1.3876085e-002  2.2223417e-002  2.1179916e-002  2.1179916e-002  2.1426857e-002 
 7.3750049e-001  3.7499964e-002 -1.5375580e-003 -1.1177989e-002  1.1283240e-002  2.0167902e-002  2.0167902e-002  2.0231558e-002 
 7.6250052e-001  3.7499964e-002  1.1301892e-002 -7.6003922e-003  1.3619792e-002  1.8968385e-002  1.8968385e-002  1.9061133e-002 
 7.8750062e-001  3.7499964e-002  2.0292429e-002 -3.7729794e-003  2.0640206e-002  1.7760120e-002  1.7760120e-002  1.7973129e-002 
 8.1250060e-001  3.7499964e-002  2.5204571e-002 -2.9788131e-004  2.5206331e-002  1.6689727e-002  1.6689727e-002  1.7007407e-002 
 8.3750063e-001  3.7499964e-002  2.6225924e-002  2.4497334e-003  2.6340090e-002  1.5814828e-002  1.5814828e-002  1.6161729e-002 
 8.6250067e-001  3.7499964e-002  2.4166923e-002  4.2468472e-003  2.4537234e-002  1.5178766e-002  1.5178766e-002  1.5479804e-002 
 8.8750076e-001  3.7499964e-002  1.9915951e-002  5.1422878e-003  2.0569108e-002  1.4756296e-002  1.4756296e-002  1.4967840e-002 
 9.1250080e-001  3.7499964e-002  1.4481971e-002  5.2828272e-003  1.5415438e-002  1.4500050e-002  1.4500050e-002  1.4618868e-002 
 9.3750083e-001  3.7499964e-002  8.7579144e-003  4.7966572e-003  9.9854385e-003  1.4365653e-002  1.4365653e-002  1.4415507e-002 
 9.6250087e-001  3.7499964e-002  3.6406009e-003  3.5512759e-003  5.0858171e-003  1.4338518e-002  1.4338518e-002  1.4351450e-002 
 9.8750043e-001  3.7499964e-002  4.6635390e-004  1.2299850e-003  1.3154274e-003  1.4447864e-002  1.4447864e-002  1.4448729e-002 
 1.0000000e+000  3.7499964e-002  0.0000000e+000  0.0000000e+000  0.0000000e+000  1.4502537e-002  1.4502537e-002  1.4502537e-002 
 0.0000000e+000  6.2499940e-002  0.0000000e+000  0.0000000e+000  0.0000000e+000  2.1178313e-002  2.1178313e-002  2.1178313e-002 
 1.2499990e-002  6.2499940e-002  3.8515765e-004 -1.8850154e-003  1.9239619e-003  2.1178536e-002  2.1178536e-002  2.1180388e-002 
 3.7499964e-002  6.2499940e-002  1.5847655e-003 -3.2364298e-003  3.6036037e-003  2.1178983e-002  2.1178983e-002  2.1185476e-002 
 6.2499940e-002  6.2499940e-002  2.5116364e-003 -2.5893322e-003  3.6073478e-003  2.1091454e-002  2.1091454e-002  2.1097960e-002 
 8.7499917e-002  6.2499940e-002  2.2738823e-003 -8.0242503e-004  2.4113122e-003  2.0937528e-002  2.0937528e-002  2.0940436e-002 
 1.1249990e-001  6.2499940e-002  3.7986739e-004  1.5099325e-003  1.5569828e-003  2.0740919e-002  2.0740919e-002  2.0742131e-002 
 1.3749990e-001  6.2499940e-002 -3.4115966e-003  4.0055690e-003  5.2615185e-003  2.0511948e-002  2.0511948e-002  2.0525789e-002 
 1.6249985e-001  6.2499940e-002 -9.2507284e-003  6.5923329e-003  1.1359350e-002  2.0249177e-002  2.0249177e-002  2.0313695e-002 
 1.8749979e-001  6.2499940e-002 -1.7275933e-002  9.3268314e-003  1.9632820e-002  1.9944122e-002  1.9944122e-002  2.0136846e-002 
 2.1249980e-001  6.2499940e-002 -2.7609590e-002  1.2277494e-002  3.0216325e-002  1.9585062e-002  1.9585062e-002  2.0041576e-002 
 2.3749980e-001  6.2499940e-002 -4.0298987e-002  1.5431189e-002  4.3152403e-002  1.9161925e-002  1.9161925e-002  2.0092990e-002 
 2.6249984e-001  6.2499940e-002 -5.5230998e-002  1.8651098e-002  5.8295168e-002  1.8668938e-002  1.8668938e-002  2.0368101e-002 
 2.8749990e-001  6.2499940e-002 -7.2061613e-002  2.1687504e-002  7.5254396e-002  1.8107947e-002  1.8107947e-002  2.0939559e-002 
 3.1249988e-001  6.2499940e-002 -9.0193704e-002  2.4216505e-002  9.3388133e-002  1.7489888e-002  1.7489888e-002  2.1850560e-002 
 3.3749995e-001  6.2499940e-002 -1.0879661e-001  2.5866130e-002  1.1182915e-001  1.6835928e-002  1.6835928e-002  2.3088807e-002 
 3.6250001e-001  6.2499940e-002 -1.2693760e-001  2.6231704e-002  1.2961966e-001  1.6182352e-002  1.6182352e-002  2.4582980e-002 
 3.8749999e-001  6.2499940e-002 -1.4358298e-001  2.5205810e-002  1.4577863e-001  1.5608300e-002  1.5608300e-002  2.6234003e-002 
 4.1250005e-001  6.2499940e-002 -1.5779997e-001  2.2525234e-002  1.5939955e-001  1.5189811e-002  1.5189811e-002  2.7893919e-002 
 4.3750012e-001  6.2499940e-002 -1.6892049e-001  1.8316302e-002  1.6991062e-001  1.4992674e-002  1.4992674e-002  2.9427484e-002 
 4.6250010e-001  6.2499940e-002 -1.7643179e-001  1.2709902e-002  1.7688900e-001  1.5078850e-002  1.5078850e-002  3.0723710e-002 
 4.8750013e-001  6.2499940e-002 -1.7988466e-001  5.9318631e-003  1.7998244e-001  1.5531721e-002  1.5531721e-002  3.1728558e-002 
 5.1250017e-001  6.2499940e-002 -1.7942511e-001 -1.4681940e-003  1.7943111e-001  1.6304735e-002  1.6304735e-002  3.2402497e-002 
 5.3750026e-001  6.2499940e-002 -1.7444073e-001 -9.1301939e-003  1.7467950e-001  1.7244985e-002  1.7244985e-002  3.2501448e-002 
 5.6250030e-001  6.2499940e-002 -1.6547801e-001 -1.6779633e-002  1.6632657e-001  1.8352136e-002  1.8352136e-002  3.2184400e-002 
 5.8750033e-001  6.2499940e-002 -1.5255590e-001 -2.3836035e-002  1.5440680e-001  1.9475427e-002  1.9475427e-002  3.1396154e-002 
 6.1250037e-001  6.2499940e-002 -1.3607554e-001 -2.9799802e-002  1.3930033e-001  2.0463267e-002  2.0463267e-002  3.0165559e-002 
 6.3750041e-001  6.2499940e-002 -1.1663395e-001 -3.4171920e-002  1.2153682e-001  2.1164499e-002  2.1164499e-002  2.8550098e-002 
 6.6250038e-001  6.2499940e-002 -9.4987445e-002 -3.6499865e-002  1.0175881e-001  2.1457268e-002  2.1457268e-002  2.6634695e-002 
 6.8750048e-001  6.2499940e-002 -7.2150335e-002 -3.6615048e-002  8.0909409e-002  2.1280620e-002  2.1280620e-002  2.4553787e-002 
 7.1250051e-001  6.2499940e-002 -4.9224794e-002 -3.4230039e-002  5.9956450e-002  2.0675110e-002  2.0675110e-002  2.2472497e-002 
 7.3750049e-001  6.2499940e-002 -2.7421538e-002 -2.9123137e-002  4.0001221e-002  1.9694244e-002  1.9694244e-002  2.0494293e-002 
 7.6250052e-001  6.2499940e-002 -8.2755182e-003 -2.1895643e-002  2.3407336e-002  1.8513111e-002  1.8513111e-002  1.8787064e-002 
 7.8750062e-001  6.2499940e-002  6.9533102e-003 -1.3630505e-002  1.5301608e-002  1.7329432e-002  1.7329432e-002  1.7446501e-002 
 8.1250060e-001  6.2499940e-002  1.7432891e-002 -5.4659788e-003  1.8269718e-002  1.6294692e-002  1.6294692e-002  1.6461583e-002 
 8.3750063e-001  6.2499940e-002  2.2978615e-002  1.5412499e-003  2.3030246e-002  1.5490840e-002  1.5490840e-002  1.5756037e-002 
 8.6250067e-001  6.2499940e-002  2.3964217e-002  6.7603071e-003  2.4899507e-002  1.4930162e-002  1.4930162e-002  1.5240154e-002 
 8.8750076e-001  6.2499940e-002  2.1461813e-002  1.0015403e-002  2.3683701e-002  1.4579179e-002  1.4579179e-002  1.4859637e-002 
 9.1250080e-001  6.2499940e-002  1.6565366e-002  1.1366609e-002  2.0090075e-002  1.4384019e-002  1.4384019e-002  1.4585825e-002 
 9.3750083e-001  6.2499940e-002  1.0509274e-002  1.0966850e-002  1.5189360e-002  1.4290364e-002  1.4290364e-002  1.4405722e-002 
 9.6250087e-001  6.2499940e-002  4.5817350e-003  8.6104367e-003  9.7535588e-003  1.4280566e-002  1.4280566e-002  1.4328132e-002 
 9.8750043e-001  6.2499940e-002  6.3171820e-004  3.6424866e-003  3.6968605e-003  1.4411303e-002  1.4411303e-002  1.4418136e-002 
 1.0000000e+000  6.2499940e-002  0.0000000e+000  0.0000000e+000  0.0000000e+000  1.4476671e-002  1.4476671e-002  1.4476671e-002 
 0.0000000e+000  8.7499917e-002  0.0000000e+000  0.0000000e+000  0.0000000e+000  2.1389110e-002  2.1389110e-002  2.1389110e-002 
 1.2499990e-002  8.7499917e-002  3.2354446e-004 -2.6638124e-003  2.6833892e-003  2.1370009e-002  2.1370009e-002  2.1373609e-002 
 3.7499964e-002  8.7499917e-002  7.2038837e-004 -3.9706174e-003  4.0354384e-003  2.1331806e-002  2.1331806e-002  2.1339947e-002 
 6.2499940e-002  8.7499917e-002  9.6884440e-005 -2.2429302e-003  2.2450218e-003  2.1227133e-002  2.1227133e-002  2.1229653e-002 
 8.7499917e-002  8.7499917e-002 -2.2730574e-003  1.2597137e-003  2.5987821e-003  2.1067185e-002  2.1067185e-002  2.1070562e-002 
 1.1249990e-001  8.7499917e-002 -6.8694372e-003  5.6650168e-003  8.9040203e-003  2.0873629e-002  2.0873629e-002  2.0913269e-002 
 1.3749990e-001  8.7499917e-002 -1.3998780e-002  1.0492917e-002  1.7494775e-002  2.0653926e-002  2.0653926e-002  2.0806959e-002 
 1.6249985e-001  8.7499917e-002 -2.3881806e-002  1.5594866e-002  2.8522631e-002  2.0400381e-002  2.0400381e-002  2.0807151e-002 
 1.8749979e-001  8.7499917e-002 -3.6673419e-002  2.0983689e-002  4.2252276e-002  2.0094743e-002  2.0094743e-002  2.0987371e-002 
 2.1249980e-001  8.7499917e-002 -5.2401870e-002  2.6633661e-002  5.8781866e-002  1.9714894e-002  1.9714894e-002  2.1442547e-002 
 2.3749980e-001  8.7499917e-002 -7.0871793e-002  3.2337524e-002  7.7900745e-002  1.9239523e-002  1.9239523e-002  2.2273786e-002 
 2.6249984e-001  8.7499917e-002 -9.1590449e-002  3.7700258e-002  9.9046052e-002  1.8652426e-002  1.8652426e-002  2.3557486e-002 
 2.8749990e-001  8.7499917e-002 -1.1377081e-001  4.2172424e-002  1.2133553e-001  1.7946633e-002  1.7946633e-002  2.5307788e-002 
 3.1249988e-001  8.7499917e-002 -1.3636754e-001  4.5155156e-002  1.4364921e-001  1.7126212e-002  1.7126212e-002  2.7443759e-002 
 3.3749995e-001  8.7499917e-002 -1.5830922e-001  4.6126448e-002  1.6489227e-001  1.6203778e-002  1.6203778e-002  2.9798508e-002 
 3.6250001e-001  8.7499917e-002 -1.7856795e-001  4.4944581e-002  1.8413725e-001  1.5287004e-002  1.5287004e-002  3.2240268e-002 
 3.8749999e-001  8.7499917e-002 -1.9625913e-001  4.1272275e-002  2.0055185e-001  1.4461320e-002  1.4461320e-002  3.4571841e-002 
 4.1250005e-001  8.7499917e-002 -2.1081267e-001  3.5352442e-002  2.1375635e-001  1.3807731e-002  1.3807731e-002  3.6653619e-002 
 4.3750012e-001  8.7499917e-002 -2.2187817e-001  2.7457964e-002  2.2357070e-001  1.3402916e-002  1.3402916e-002  3.8394846e-002 
 4.6250010e-001  8.7499917e-002 -2.2920385e-001  1.7919226e-002  2.2990325e-001  1.3316062e-002  1.3316062e-002  3.9743815e-002 
 4.8750013e-001  8.7499917e-002 -2.3253174e-001  7.1097696e-003  2.3264042e-001  1.3651953e-002  1.3651953e-002  4.0712733e-002 
 5.1250017e-001  8.7499917e-002 -2.3216720e-001 -4.5517427e-003  2.3221181e-001  1.4341672e-002  1.4341672e-002  4.1302834e-002 
 5.3750026e-001  8.7499917e-002 -2.2730514e-001 -1.6495617e-002  2.2790290e-001  1.5266267e-002  1.5266267e-002  4.1236132e-002 
 5.6250030e-001  8.7499917e-002 -2.1850419e-001 -2.8192112e-002  2.2031540e-001  1.6408714e-002  1.6408714e-002  4.0678151e-002 
 5.8750033e-001  8.7499917e-002 -2.0562722e-001 -3.9141908e-002  2.0931947e-001  1.7624414e-002  1.7624414e-002  3.9531734e-002 
 6.1250037e-001  8.7499917e-002 -1.8884601e-001 -4.8611004e-002  1.9500217e-001  1.8755399e-002  1.8755399e-002  3.7768319e-002 
 6.3750041e-001  8.7499917e-002 -1.6847542e-001 -5.5912517e-002  1.7751107e-001  1.9644056e-002  1.9644056e-002  3.5399143e-002 
 6.6250038e-001  8.7499917e-002 -1.4505588e-001 -6.0360637e-002  1.5711337e-001  2.0152761e-002  2.0152761e-002  3.2495067e-002 
 6.8750048e-001  8.7499917e-002 -1.1945555e-001 -6.1434705e-002  1.3432741e-001  2.0183008e-002  2.0183008e-002  2.9204935e-002 
 7.1250051e-001  8.7499917e-002 -9.2705682e-002 -5.9075370e-002  1.0992835e-001  1.9763926e-002  1.9763926e-002  2.5806047e-002 
 7.3750049e-001  8.7499917e-002 -6.5977581e-002 -5.2427176e-002  8.4271289e-002  1.8949069e-002  1.8949069e-002  2.2499895e-002 
 7.6250052e-001  8.7499917e-002 -4.0903073e-002 -4.2102389e-002  5.8699850e-002  1.7876958e-002  1.7876958e-002  1.9599795e-002 
 7.8750062e-001  8.7499917e-002 -1.9239679e-002 -2.9497471e-002  3.5217412e-002  1.6761430e-002  1.6761430e-002  1.7381562e-002 
 8.1250060e-001  8.7499917e-002 -2.3050001e-003 -1.6268333e-002  1.6430816e-002  1.5772095e-002  1.5772095e-002  1.5907081e-002 
 8.3750063e-001  8.7499917e-002  9.1560725e-003 -4.0988890e-003  1.0031678e-002  1.5016595e-002  1.5016595e-002  1.5066912e-002 
 8.6250067e-001  8.7499917e-002  1.5126389e-002  5.7334038e-003  1.6176512e-002  1.4514730e-002  1.4514730e-002  1.4645570e-002 
 8.8750076e-001  8.7499917e-002  1.6288787e-002  1.2529101e-002  2.0550011e-002  1.4229576e-002  1.4229576e-002  1.4440727e-002 
 9.1250080e-001  8.7499917e-002  1.3919593e-002  1.6194345e-002  2.1354435e-002  1.4096954e-002  1.4096954e-002  1.4324960e-002 
 9.3750083e-001  8.7499917e-002  9.3658818e-003  1.6684245e-002  1.9133316e-002  1.4051887e-002  1.4051887e-002  1.4234929e-002 
 9.6250087e-001  8.7499917e-002  4.1954573e-003  1.3703909e-002  1.4331747e-002  1.4066439e-002  1.4066439e-002  1.4169139e-002 
 9.8750043e-001  8.7499917e-002  5.5455201e-004  6.1690961e-003  6.1939708e-003  1.4201307e-002  1.4201307e-002  1.4220489e-002 
 1.0000000e+000  8.7499917e-002  0.0000000e+000  0.0000000e+000  0.0000000e+000  1.4268739e-002  1.4268739e-002  1.4268739e-002 
 0.0000000e+000  1.1249990e-001  0.0000000e+000  0.0000000e+000  0.0000000e+000  2.1705480e-002  2.1705480e-002  2.1705480e-002 
 1.2499990e-002  1.1249990e-001  1.8503309e-004 -2.8104661e-003  2.8165504e-003  2.1656020e-002  2.1656020e-002  2.1659985e-002 
 3.7499964e-002  1.1249990e-001 -7.6183479e-004 -3.1188366e-003  3.2105348e-003  2.1557098e-002  2.1557098e-002  2.1562252e-002 
 6.2499940e-002  1.1249990e-001 -3.7093821e-003  3.9700133e-004  3.7305665e-003  2.1428103e-002  2.1428103e-002  2.1435061e-002 
 8.7499917e-002  1.1249990e-001 -8.9893416e-003  6.2002568e-003  1.0920231e-002  2.1254353e-002  2.1254353e-002  2.1313978e-002 
 1.1249990e-001  1.1249990e-001 -1.7017802e-002  1.3279627e-002  2.1585969e-002  2.1048743e-002  2.1048743e-002  2.1281721e-002 
 1.3749990e-001  1.1249990e-001 -2.8124476e-002  2.1057256e-002  3.5133947e-002  2.0812517e-002  2.0812517e-002  2.1429714e-002 
 1.6249985e-001  1.1249990e-001 -4.2527203e-002  2.9295141e-002  5.1640760e-002  2.0526422e-002  2.0526422e-002  2.1859806e-002 
 1.8749979e-001  1.1249990e-001 -6.0277615e-002  3.7865333e-002  7.1184084e-002  2.0158684e-002  2.0158684e-002  2.2692271e-002 
 2.1249980e-001  1.1249990e-001 -8.1150718e-002  4.6486981e-002  9.3522608e-002  1.9672306e-002  1.9672306e-002  2.4045546e-002 
 2.3749980e-001  1.1249990e-001 -1.0457502e-001  5.4626353e-002  1.1798294e-001  1.9031193e-002  1.9031193e-002  2.5991181e-002 
 2.6249984e-001  1.1249990e-001 -1.2964444e-001  6.1526865e-002  1.4350343e-001  1.8202584e-002  1.8202584e-002  2.8499203e-002 
 2.8749990e-001  1.1249990e-001 -1.5511186e-001  6.6390276e-002  1.6872273e-001  1.7177736e-002  1.7177736e-002  3.1411417e-002 
 3.1249988e-001  1.1249990e-001 -1.7985527e-001  6.8588711e-002  1.9248982e-001  1.5975127e-002  1.5975127e-002  3.4501292e-002 
 3.3749995e-001  1.1249990e-001 -2.0299606e-001  6.8010554e-002  2.1408604e-001  1.4661147e-002  1.4661147e-002  3.7577566e-002 
 3.6250001e-001  1.1249990e-001 -2.2368403e-001  6.4154439e-002  2.3270226e-001  1.3376537e-002  1.3376537e-002  4.0451705e-002 
 3.8749999e-001  1.1249990e-001 -2.4138266e-001  5.7408098e-002  2.4811545e-001  1.2183632e-002  1.2183632e-002  4.2964272e-002 
 4.1250005e-001  1.1249990e-001 -2.5587177e-001  4.8094563e-002  2.6035255e-001  1.1198205e-002  1.1198205e-002  4.5089930e-002 
 4.3750012e-001  1.1249990e-001 -2.6697749e-001  3.6619116e-002  2.6947716e-001  1.0502498e-002  1.0502498e-002  4.6811469e-002 