Variables = "x","y", "Velocity_x", "Velocity_y", "Velocity_whole value", "Pressure", "Absolute pressure", "Total pressure"
Zone i=82, j=82
 0.0000000e+000  0.0000000e+000  0.0000000e+000  0.0000000e+000  0.0000000e+000  1.7538700e-002  1.7538700e-002  1.7538700e-002 
 6.2499950e-003  0.0000000e+000  0.0000000e+000  0.0000000e+000  0.0000000e+000  1.7552977e-002  1.7552977e-002  1.7552977e-002 
 1.8749986e-002  0.0000000e+000  0.0000000e+000  0.0000000e+000  0.0000000e+000  1.7581532e-002  1.7581532e-002  1.7581532e-002 
 3.1249970e-002  0.0000000e+000  0.0000000e+000  0.0000000e+000  0.0000000e+000  1.7594069e-002  1.7594069e-002  1.7594069e-002 
 4.3749955e-002  0.0000000e+000  0.0000000e+000  0.0000000e+000  0.0000000e+000  1.7579742e-002  1.7579742e-002  1.7579742e-002 
 5.6249946e-002  0.0000000e+000  0.0000000e+000  0.0000000e+000  0.0000000e+000  1.7534712e-002  1.7534712e-002  1.7534712e-002 
 6.8749934e-002  0.0000000e+000  0.0000000e+000  0.0000000e+000  0.0000000e+000  1.7459977e-002  1.7459977e-002  1.7459977e-002 
 8.1249923e-002  0.0000000e+000  0.0000000e+000  0.0000000e+000  0.0000000e+000  1.7358977e-002  1.7358977e-002  1.7358977e-002 
 9.3749911e-002  0.0000000e+000  0.0000000e+000  0.0000000e+000  0.0000000e+000  1.7235801e-002  1.7235801e-002  1.7235801e-002 
 1.0624990e-001  0.0000000e+000  0.0000000e+000  0.0000000e+000  0.0000000e+000  1.7094443e-002  1.7094443e-002  1.7094443e-002 
 1.1874990e-001  0.0000000e+000  0.0000000e+000  0.0000000e+000  0.0000000e+000  1.6938465e-002  1.6938465e-002  1.6938465e-002 
 1.3124990e-001  0.0000000e+000  0.0000000e+000  0.0000000e+000  0.0000000e+000  1.6767010e-002  1.6767010e-002  1.6767010e-002 
 1.4374995e-001  0.0000000e+000  0.0000000e+000  0.0000000e+000  0.0000000e+000  1.6583748e-002  1.6583748e-002  1.6583748e-002 
 1.5625000e-001  0.0000000e+000  0.0000000e+000  0.0000000e+000  0.0000000e+000  1.6388029e-002  1.6388029e-002  1.6388029e-002 
 1.6875005e-001  0.0000000e+000  0.0000000e+000  0.0000000e+000  0.0000000e+000  1.6178943e-002  1.6178943e-002  1.6178943e-002 
 1.8125010e-001  0.0000000e+000  0.0000000e+000  0.0000000e+000  0.0000000e+000  1.5955381e-002  1.5955381e-002  1.5955381e-002 
 1.9375014e-001  0.0000000e+000  0.0000000e+000  0.0000000e+000  0.0000000e+000  1.5716080e-002  1.5716080e-002  1.5716080e-002 
 2.0625019e-001  0.0000000e+000  0.0000000e+000  0.0000000e+000  0.0000000e+000  1.5459915e-002  1.5459915e-002  1.5459915e-002 
 2.1875025e-001  0.0000000e+000  0.0000000e+000  0.0000000e+000  0.0000000e+000  1.5186135e-002  1.5186135e-002  1.5186135e-002 
 2.3125030e-001  0.0000000e+000  0.0000000e+000  0.0000000e+000  0.0000000e+000  1.4894456e-002  1.4894456e-002  1.4894456e-002 
 2.4375033e-001  0.0000000e+000  0.0000000e+000  0.0000000e+000  0.0000000e+000  1.4585206e-002  1.4585206e-002  1.4585206e-002 
 2.5625038e-001  0.0000000e+000  0.0000000e+000  0.0000000e+000  0.0000000e+000  1.4259441e-002  1.4259441e-002  1.4259441e-002 
 2.6875046e-001  0.0000000e+000  0.0000000e+000  0.0000000e+000  0.0000000e+000  1.3918996e-002  1.3918996e-002  1.3918996e-002 
 2.8125051e-001  0.0000000e+000  0.0000000e+000  0.0000000e+000  0.0000000e+000  1.3566568e-002  1.3566568e-002  1.3566568e-002 
 2.9375049e-001  0.0000000e+000  0.0000000e+000  0.0000000e+000  0.0000000e+000  1.3205744e-002  1.3205744e-002  1.3205744e-002 
 3.0625054e-001  0.0000000e+000  0.0000000e+000  0.0000000e+000  0.0000000e+000  1.2841057e-002  1.2841057e-002  1.2841057e-002 
 3.1875062e-001  0.0000000e+000  0.0000000e+000  0.0000000e+000  0.0000000e+000  1.2478025e-002  1.2478025e-002  1.2478025e-002 
 3.3125067e-001  0.0000000e+000  0.0000000e+000  0.0000000e+000  0.0000000e+000  1.2123102e-002  1.2123102e-002  1.2123102e-002 
 3.4375072e-001  0.0000000e+000  0.0000000e+000  0.0000000e+000  0.0000000e+000  1.1783667e-002  1.1783667e-002  1.1783667e-002 
 3.5625076e-001  0.0000000e+000  0.0000000e+000  0.0000000e+000  0.0000000e+000  1.1467922e-002  1.1467922e-002  1.1467922e-002 
 3.6875081e-001  0.0000000e+000  0.0000000e+000  0.0000000e+000  0.0000000e+000  1.1184726e-002  1.1184726e-002  1.1184726e-002 
 3.8125086e-001  0.0000000e+000  0.0000000e+000  0.0000000e+000  0.0000000e+000  1.0943428e-002  1.0943428e-002  1.0943428e-002 
 3.9375091e-001  0.0000000e+000  0.0000000e+000  0.0000000e+000  0.0000000e+000  1.0753471e-002  1.0753471e-002  1.0753471e-002 
 4.0625095e-001  0.0000000e+000  0.0000000e+000  0.0000000e+000  0.0000000e+000  1.0624124e-002  1.0624124e-002  1.0624124e-002 
 4.1875100e-001  0.0000000e+000  0.0000000e+000  0.0000000e+000  0.0000000e+000  1.0564083e-002  1.0564083e-002  1.0564083e-002 
 4.3125105e-001  0.0000000e+000  0.0000000e+000  0.0000000e+000  0.0000000e+000  1.0580844e-002  1.0580844e-002  1.0580844e-002 
 4.4375110e-001  0.0000000e+000  0.0000000e+000  0.0000000e+000  0.0000000e+000  1.0680422e-002  1.0680422e-002  1.0680422e-002 
 4.5625114e-001  0.0000000e+000  0.0000000e+000  0.0000000e+000  0.0000000e+000  1.0866915e-002  1.0866915e-002  1.0866915e-002 
 4.6875119e-001  0.0000000e+000  0.0000000e+000  0.0000000e+000  0.0000000e+000  1.1142123e-002  1.1142123e-002  1.1142123e-002 
 4.8125124e-001  0.0000000e+000  0.0000000e+000  0.0000000e+000  0.0000000e+000  1.1505352e-002  1.1505352e-002  1.1505352e-002 
 4.9375129e-001  0.0000000e+000  0.0000000e+000  0.0000000e+000  0.0000000e+000  1.1952395e-002  1.1952395e-002  1.1952395e-002 
 5.0625134e-001  0.0000000e+000  0.0000000e+000  0.0000000e+000  0.0000000e+000  1.2471655e-002  1.2471655e-002  1.2471655e-002 
 5.1875138e-001  0.0000000e+000  0.0000000e+000  0.0000000e+000  0.0000000e+000  1.3044367e-002  1.3044367e-002  1.3044367e-002 
 5.3125143e-001  0.0000000e+000  0.0000000e+000  0.0000000e+000  0.0000000e+000  1.3686772e-002  1.3686772e-002  1.3686772e-002 
 5.4375148e-001  0.0000000e+000  0.0000000e+000  0.0000000e+000  0.0000000e+000  1.4352265e-002  1.4352265e-002  1.4352265e-002 
 5.5625153e-001  0.0000000e+000  0.0000000e+000  0.0000000e+000  0.0000000e+000  1.5028384e-002  1.5028384e-002  1.5028384e-002 
 5.6875157e-001  0.0000000e+000  0.0000000e+000  0.0000000e+000  0.0000000e+000  1.5695516e-002  1.5695516e-002  1.5695516e-002 
 5.8125162e-001  0.0000000e+000  0.0000000e+000  0.0000000e+000  0.0000000e+000  1.6330978e-002  1.6330978e-002  1.6330978e-002 
 5.9375167e-001  0.0000000e+000  0.0000000e+000  0.0000000e+000  0.0000000e+000  1.6911872e-002  1.6911872e-002  1.6911872e-002 
 6.0625172e-001  0.0000000e+000  0.0000000e+000  0.0000000e+000  0.0000000e+000  1.7416179e-002  1.7416179e-002  1.7416179e-002 
 6.1875176e-001  0.0000000e+000  0.0000000e+000  0.0000000e+000  0.0000000e+000  1.7823912e-002  1.7823912e-002  1.7823912e-002 
 6.3125181e-001  0.0000000e+000  0.0000000e+000  0.0000000e+000  0.0000000e+000  1.8118197e-002  1.8118197e-002  1.8118197e-002 
 6.4375186e-001  0.0000000e+000  0.0000000e+000  0.0000000e+000  0.0000000e+000  1.8286306e-002  1.8286306e-002  1.8286306e-002 
 6.5625191e-001  0.0000000e+000  0.0000000e+000  0.0000000e+000  0.0000000e+000  1.8320467e-002  1.8320467e-002  1.8320467e-002 
 6.6875196e-001  0.0000000e+000  0.0000000e+000  0.0000000e+000  0.0000000e+000  1.8218381e-002  1.8218381e-002  1.8218381e-002 
 6.8125200e-001  0.0000000e+000  0.0000000e+000  0.0000000e+000  0.0000000e+000  1.7981675e-002  1.7981675e-002  1.7981675e-002 
 6.9375205e-001  0.0000000e+000  0.0000000e+000  0.0000000e+000  0.0000000e+000  1.7618248e-002  1.7618248e-002  1.7618248e-002 
 7.0625210e-001  0.0000000e+000  0.0000000e+000  0.0000000e+000  0.0000000e+000  1.7141934e-002  1.7141934e-002  1.7141934e-002 
 7.1875215e-001  0.0000000e+000  0.0000000e+000  0.0000000e+000  0.0000000e+000  1.6571134e-002  1.6571134e-002  1.6571134e-002 
 7.3125219e-001  0.0000000e+000  0.0000000e+000  0.0000000e+000  0.0000000e+000  1.5927773e-002  1.5927773e-002  1.5927773e-002 
 7.4375224e-001  0.0000000e+000  0.0000000e+000  0.0000000e+000  0.0000000e+000  1.5234957e-002  1.5234957e-002  1.5234957e-002 
 7.5625229e-001  0.0000000e+000  0.0000000e+000  0.0000000e+000  0.0000000e+000  1.4515816e-002  1.4515816e-002  1.4515816e-002 
 7.6875234e-001  0.0000000e+000  0.0000000e+000  0.0000000e+000  0.0000000e+000  1.3793085e-002  1.3793085e-002  1.3793085e-002 
 7.8125238e-001  0.0000000e+000  0.0000000e+000  0.0000000e+000  0.0000000e+000  1.3087334e-002  1.3087334e-002  1.3087334e-002 
 7.9375243e-001  0.0000000e+000  0.0000000e+000  0.0000000e+000  0.0000000e+000  1.2415927e-002  1.2415927e-002  1.2415927e-002 
 8.0625248e-001  0.0000000e+000  0.0000000e+000  0.0000000e+000  0.0000000e+000  1.1792355e-002  1.1792355e-002  1.1792355e-002 
 8.1875253e-001  0.0000000e+000  0.0000000e+000  0.0000000e+000  0.0000000e+000  1.1227043e-002  1.1227043e-002  1.1227043e-002 
 8.3125257e-001  0.0000000e+000  0.0000000e+000  0.0000000e+000  0.0000000e+000  1.0725570e-002  1.0725570e-002  1.0725570e-002 
 8.4375262e-001  0.0000000e+000  0.0000000e+000  0.0000000e+000  0.0000000e+000  1.0290535e-002  1.0290535e-002  1.0290535e-002 
 8.5625267e-001  0.0000000e+000  0.0000000e+000  0.0000000e+000  0.0000000e+000  9.9215759e-003  9.9215759e-003  9.9215759e-003 
 8.6875272e-001  0.0000000e+000  0.0000000e+000  0.0000000e+000  0.0000000e+000  9.6159913e-003  9.6159913e-003  9.6159913e-003 
 8.8125277e-001  0.0000000e+000  0.0000000e+000  0.0000000e+000  0.0000000e+000  9.3695708e-003  9.3695708e-003  9.3695708e-003 
 8.9375281e-001  0.0000000e+000  0.0000000e+000  0.0000000e+000  0.0000000e+000  9.1773439e-003  9.1773439e-003  9.1773439e-003 
 9.0625286e-001  0.0000000e+000  0.0000000e+000  0.0000000e+000  0.0000000e+000  9.0342304e-003  9.0342304e-003  9.0342304e-003 
 9.1875291e-001  0.0000000e+000  0.0000000e+000  0.0000000e+000  0.0000000e+000  8.9356927e-003  8.9356927e-003  8.9356927e-003 
 9.3125296e-001  0.0000000e+000  0.0000000e+000  0.0000000e+000  0.0000000e+000  8.8780178e-003  8.8780178e-003  8.8780178e-003 
 9.4375300e-001  0.0000000e+000  0.0000000e+000  0.0000000e+000  0.0000000e+000  8.8582383e-003  8.8582383e-003  8.8582383e-003 
 9.5625305e-001  0.0000000e+000  0.0000000e+000  0.0000000e+000  0.0000000e+000  8.8730929e-003  8.8730929e-003  8.8730929e-003 
 9.6875310e-001  0.0000000e+000  0.0000000e+000  0.0000000e+000  0.0000000e+000  8.9162160e-003  8.9162160e-003  8.9162160e-003 
 9.8125315e-001  0.0000000e+000  0.0000000e+000  0.0000000e+000  0.0000000e+000  8.9735053e-003  8.9735053e-003  8.9735053e-003 
 9.9375159e-001  0.0000000e+000  0.0000000e+000  0.0000000e+000  0.0000000e+000  9.0254527e-003  9.0254527e-003  9.0254527e-003 
 1.0000000e+000  0.0000000e+000  0.0000000e+000  0.0000000e+000  0.0000000e+000  9.0514235e-003  9.0514235e-003  9.0514235e-003 
 0.0000000e+000  6.2499950e-003  0.0000000e+000  0.0000000e+000  0.0000000e+000  1.7524468e-002  1.7524468e-002  1.7524468e-002 
 6.2499950e-003  6.2499950e-003 -1.5829606e-005  1.5657004e-005  2.2264730e-005  1.7538769e-002  1.7538769e-002  1.7538769e-002 
 1.8749986e-002  6.2499950e-003  9.0163121e-005 -2.9636540e-005  9.4908974e-005  1.7567372e-002  1.7567372e-002  1.7567376e-002 
 3.1249970e-002  6.2499950e-003  3.2665025e-004 -5.6005265e-005  3.3141661e-004  1.7576525e-002  1.7576525e-002  1.7576579e-002 
 4.3749955e-002  6.2499950e-003  6.2253070e-004 -6.4935797e-005  6.2590826e-004  1.7559968e-002  1.7559968e-002  1.7560164e-002 
 5.6249946e-002  6.2499950e-003  9.2831434e-004 -6.3544561e-005  9.3048665e-004  1.7515149e-002  1.7515149e-002  1.7515581e-002 
 6.8749934e-002  6.2499950e-003  1.2092358e-003 -5.6433411e-005  1.2105518e-003  1.7442781e-002  1.7442781e-002  1.7443513e-002 
 8.1249923e-002  6.2499950e-003  1.4422912e-003 -4.6812122e-005  1.4430507e-003  1.7345777e-002  1.7345777e-002  1.7346818e-002 
 9.3749911e-002  6.2499950e-003  1.6145071e-003 -3.6733662e-005  1.6149249e-003  1.7227713e-002  1.7227713e-002  1.7229017e-002 
 1.0624990e-001  6.2499950e-003  1.7204351e-003 -2.7084267e-005  1.7206483e-003  1.7092032e-002  1.7092032e-002  1.7093513e-002 
 1.1874990e-001  6.2499950e-003  1.7603841e-003 -1.8025039e-005  1.7604764e-003  1.6941670e-002  1.6941670e-002  1.6943220e-002 
 1.3124990e-001  6.2499950e-003  1.7362055e-003 -1.3300670e-005  1.7362565e-003  1.6776914e-002  1.6776914e-002  1.6778421e-002 
 1.4374995e-001  6.2499950e-003  1.6505637e-003 -9.1873071e-006  1.6505893e-003  1.6599998e-002  1.6599998e-002  1.6601359e-002 
 1.5625000e-001  6.2499950e-003  1.5071012e-003 -5.7678808e-006  1.5071123e-003  1.6410571e-002  1.6410571e-002  1.6411707e-002 
 1.6875005e-001  6.2499950e-003  1.3072658e-003 -2.8749155e-006  1.3072690e-003  1.6207870e-002  1.6207870e-002  1.6208725e-002 
 1.8125010e-001  6.2499950e-003  1.0505710e-003 -3.9714475e-008  1.0505710e-003  1.5990881e-002  1.5990881e-002  1.5991433e-002 
 1.9375014e-001  6.2499950e-003  7.3456188e-004  3.1814893e-006  7.3456875e-004  1.5758453e-002  1.5758453e-002  1.5758723e-002 
 2.0625019e-001  6.2499950e-003  3.5531283e-004  7.1705908e-006  3.5538519e-004  1.5509550e-002  1.5509550e-002  1.5509614e-002 
 2.1875025e-001  6.2499950e-003 -9.2629081e-005  1.2280972e-005  9.3439652e-005  1.5243453e-002  1.5243453e-002  1.5243458e-002 
 2.3125030e-001  6.2499950e-003 -6.1538949e-004  1.8713317e-005  6.1567395e-004  1.4959887e-002  1.4959887e-002  1.4960077e-002 
 2.4375033e-001  6.2499950e-003 -1.2192595e-003  2.6580621e-005  1.2195492e-003  1.4659146e-002  1.4659146e-002  1.4659889e-002 
 2.5625038e-001  6.2499950e-003 -1.9101441e-003  3.5941452e-005  1.9104822e-003  1.4342194e-002  1.4342194e-002  1.4344020e-002 
 2.6875046e-001  6.2499950e-003 -2.6930699e-003  4.6802779e-005  2.6934766e-003  1.4010738e-002  1.4010738e-002  1.4014365e-002 
 2.8125051e-001  6.2499950e-003 -3.5717506e-003  5.9129983e-005  3.5722400e-003  1.3667296e-002  1.3667296e-002  1.3673676e-002 
 2.9375049e-001  6.2499950e-003 -4.5482218e-003  7.2859133e-005  4.5488053e-003  1.3315244e-002  1.3315244e-002  1.3325590e-002 
 3.0625054e-001  6.2499950e-003 -5.6225057e-003  8.7871296e-005  5.6231921e-003  1.2958875e-002  1.2958875e-002  1.2974685e-002 
 3.1875062e-001  6.2499950e-003 -6.7922473e-003  1.0398001e-004  6.7930431e-003  1.2603433e-002  1.2603433e-002  1.2626505e-002 
 3.3125067e-001  6.2499950e-003 -8.0524404e-003  1.2094776e-004  8.0533484e-003  1.2255087e-002  1.2255087e-002  1.2287516e-002 
 3.4375072e-001  6.2499950e-003 -9.3952259e-003  1.3845459e-004  9.3962457e-003  1.1920913e-002  1.1920913e-002  1.1965058e-002 
 3.5625076e-001  6.2499950e-003 -1.0809495e-002  1.5599545e-004  1.0810621e-002  1.1608840e-002  1.1608840e-002  1.1667275e-002 
 3.6875081e-001  6.2499950e-003 -1.2280826e-002  1.7318981e-004  1.2282047e-002  1.1327406e-002  1.1327406e-002  1.1402830e-002 
 3.8125086e-001  6.2499950e-003 -1.3791783e-002  1.8968657e-004  1.3793088e-002  1.1085578e-002  1.1085578e-002  1.1180703e-002 
 3.9375091e-001  6.2499950e-003 -1.5321382e-002  2.0423857e-004  1.5322744e-002  1.0892710e-002  1.0892710e-002  1.1010103e-002 
 4.0625095e-001  6.2499950e-003 -1.6845042e-002  2.1615314e-004  1.6846430e-002  1.0757898e-002  1.0757898e-002  1.0899799e-002 
 4.1875100e-001  6.2499950e-003 -1.8335698e-002  2.2482486e-004  1.8337077e-002  1.0689645e-002  1.0689645e-002  1.0857769e-002 
 4.3125105e-001  6.2499950e-003 -1.9764237e-002  2.2953415e-004  1.9765571e-002  1.0695383e-002  1.0695383e-002  1.0890722e-002 
 4.4375110e-001  6.2499950e-003 -2.1099728e-002  2.2945163e-004  2.1100976e-002  1.0781170e-002  1.0781170e-002  1.1003795e-002 
 4.5625114e-001  6.2499950e-003 -2.2310192e-002  2.2381396e-004  2.2311315e-002  1.0951219e-002  1.0951219e-002  1.1200117e-002 
 4.6875119e-001  6.2499950e-003 -2.3363560e-002  2.1215726e-004  2.3364523e-002  1.1207444e-002  1.1207444e-002  1.1480394e-002 
 4.8125124e-001  6.2499950e-003 -2.4227418e-002  1.9350719e-004  2.4228191e-002  1.1549340e-002  1.1549340e-002  1.1842842e-002 
 4.9375129e-001  6.2499950e-003 -2.4867568e-002  1.6539790e-004  2.4868118e-002  1.1973356e-002  1.1973356e-002  1.2282567e-002 
 5.0625134e-001  6.2499950e-003 -2.5253983e-002  1.2463385e-004  2.5254291e-002  1.2469994e-002  1.2469994e-002  1.2788883e-002 
 5.1875138e-001  6.2499950e-003 -2.5376681e-002  7.1395531e-005  2.5376782e-002  1.3023534e-002  1.3023534e-002  1.3345525e-002 
 5.3125143e-001  6.2499950e-003 -2.5218159e-002  4.3054755e-005  2.5218196e-002  1.3635378e-002  1.3635378e-002  1.3953357e-002 
 5.4375148e-001  6.2499950e-003 -2.4755642e-002 -1.2960936e-006  2.4755642e-002  1.4274856e-002  1.4274856e-002  1.4581277e-002 
 5.5625153e-001  6.2499950e-003 -2.3990875e-002 -5.3329331e-005  2.3990935e-002  1.4926584e-002  1.4926584e-002  1.5214367e-002 
 5.6875157e-001  6.2499950e-003 -2.2924388e-002 -1.0786198e-004  2.2924641e-002  1.5570637e-002  1.5570637e-002  1.5833406e-002 
 5.8125162e-001  6.2499950e-003 -2.1565154e-002 -1.6242659e-004  2.1565765e-002  1.6184876e-002  1.6184876e-002  1.6417418e-002 
 5.9375167e-001  6.2499950e-003 -1.9931486e-002 -2.1478617e-004  1.9932643e-002  1.6746920e-002  1.6746920e-002  1.6945574e-002 
 6.0625172e-001  6.2499950e-003 -1.8050658e-002 -2.6253038e-004  1.8052567e-002  1.7235205e-002  1.7235205e-002  1.7398153e-002 
 6.1875176e-001  6.2499950e-003 -1.5958441e-002 -3.0332967e-004  1.5961325e-002  1.7630130e-002  1.7630130e-002  1.7757513e-002 
 6.3125181e-001  6.2499950e-003 -1.3698445e-002 -3.3498020e-004  1.3702540e-002  1.7915092e-002  1.7915092e-002  1.8008972e-002 
 6.4375186e-001  6.2499950e-003 -1.1320895e-002 -3.5556123e-004  1.1326477e-002  1.8077482e-002  1.8077482e-002  1.8141625e-002 
 6.5625191e-001  6.2499950e-003 -8.8807130e-003 -3.6423220e-004  8.8881794e-003  1.8109687e-002  1.8109687e-002  1.8149186e-002 
 6.6875196e-001  6.2499950e-003 -6.4321607e-003 -3.6252540e-004  6.4423690e-003  1.8009743e-002  1.8009743e-002  1.8030494e-002 
 6.8125200e-001  6.2499950e-003 -4.0312442e-003 -3.4769869e-004  4.0462110e-003  1.7779011e-002  1.7779011e-002  1.7787198e-002 
 6.9375205e-001  6.2499950e-003 -1.7376413e-003 -3.1987461e-004  1.7668381e-003  1.7425258e-002  1.7425258e-002  1.7426819e-002 
 7.0625210e-001  6.2499950e-003  3.9291364e-004 -2.8110380e-004  4.8311538e-004  1.6962122e-002  1.6962122e-002  1.6962240e-002 
 7.1875215e-001  6.2499950e-003  2.3129364e-003 -2.3399970e-004  2.3247432e-003  1.6407628e-002  1.6407628e-002  1.6410330e-002 
 7.3125219e-001  6.2499950e-003  3.9857370e-003 -1.8088694e-004  3.9898395e-003  1.5782960e-002  1.5782960e-002  1.5790919e-002 
 7.4375224e-001  6.2499950e-003  5.3819343e-003 -1.2511401e-004  5.3833886e-003  1.5110700e-002  1.5110700e-002  1.5125191e-002 
 7.5625229e-001  6.2499950e-003  6.4878110e-003 -7.0406350e-005  6.4881928e-003  1.4413573e-002  1.4413573e-002  1.4434621e-002 
 7.6875234e-001  6.2499950e-003  7.3006279e-003 -1.9510102e-005  7.3006540e-003  1.3713679e-002  1.3713679e-002  1.3740329e-002 
 7.8125238e-001  6.2499950e-003  7.8279041e-003  2.5614445e-005  7.8279460e-003  1.3030772e-002  1.3030772e-002  1.3061411e-002 
 7.9375243e-001  6.2499950e-003  8.0879452e-003  6.3570573e-005  8.0881948e-003  1.2381346e-002  1.2381346e-002  1.2414056e-002 
 8.0625248e-001  6.2499950e-003  8.1065148e-003  9.3444767e-005  8.1070531e-003  1.1778283e-002  1.1778283e-002  1.1811145e-002 
 8.1875253e-001  6.2499950e-003  7.9159588e-003  1.1627520e-004  7.9168128e-003  1.1231160e-002  1.1231160e-002  1.1262498e-002 
 8.3125257e-001  6.2499950e-003  7.5499173e-003  1.3151501e-004  7.5510629e-003  1.0745589e-002  1.0745589e-002  1.0774098e-002 
 8.4375262e-001  6.2499950e-003  7.0436629e-003  1.3963798e-004  7.0450469e-003  1.0323988e-002  1.0323988e-002  1.0348804e-002 
 8.5625267e-001  6.2499950e-003  6.4318539e-003  1.4213745e-004  6.4334241e-003  9.9657765e-003  9.9657765e-003  9.9864714e-003 
 8.6875272e-001  6.2499950e-003  5.7461886e-003  1.4038566e-004  5.7479031e-003  9.6682860e-003  9.6682860e-003  9.6848048e-003 
 8.8125277e-001  6.2499950e-003  5.0145187e-003  1.3570227e-004  5.0163544e-003  9.4274525e-003  9.4274525e-003  9.4400346e-003 
 8.9375281e-001  6.2499950e-003  4.2604972e-003  1.2931394e-004  4.2624590e-003  9.2384769e-003  9.2384769e-003  9.2475610e-003 
 9.0625286e-001  6.2499950e-003  3.5038530e-003  1.2217715e-004  3.5059825e-003  9.0964409e-003  9.0964409e-003  9.1025867e-003 
 9.1875291e-001  6.2499950e-003  2.7615188e-003  1.1482611e-004  2.7639051e-003  8.9968303e-003  8.9968303e-003  9.0006497e-003 
 9.3125296e-001  6.2499950e-003  2.0499497e-003  1.0682549e-004  2.0527313e-003  8.9358855e-003  8.9358855e-003  8.9379922e-003 
 9.4375300e-001  6.2499950e-003  1.3889858e-003  9.6186806e-005  1.3923122e-003  8.9105349e-003  8.9105349e-003  8.9115044e-003 
 9.5625305e-001  6.2499950e-003  8.0643175e-004  7.8977966e-005  8.1028987e-004  8.9174844e-003  8.9174844e-003  8.9178123e-003 
 9.6875310e-001  6.2499950e-003  3.4033274e-004  4.9136714e-005  3.4386158e-004  8.9508593e-003  8.9508593e-003  8.9509180e-003 
 9.8125315e-001  6.2499950e-003  3.6161917e-005 -1.7622473e-007  3.6162346e-005  8.9995461e-003  8.9995461e-003  8.9995470e-003 
 9.9375159e-001  6.2499950e-003 -5.3794367e-005 -5.4299391e-005  7.6434662e-005  9.0515073e-003  9.0515073e-003  9.0515101e-003 
 1.0000000e+000  6.2499950e-003  0.0000000e+000  0.0000000e+000  0.0000000e+000  9.0774847e-003  9.0774847e-003  9.0774847e-003 
 0.0000000e+000  1.8749986e-002  0.0000000e+000  0.0000000e+000  0.0000000e+000  1.7496003e-002  1.7496003e-002  1.7496003e-002 
 6.2499950e-003  1.8749986e-002  2.9132794e-005 -8.9754285e-005  9.4363932e-005  1.7510353e-002  1.7510353e-002  1.7510356e-002 
 1.8749986e-002  1.8749986e-002  3.4288026e-004 -3.4285657e-004  4.8488917e-004  1.7539052e-002  1.7539052e-002  1.7539170e-002 
 3.1249970e-002  1.8749986e-002  9.0484548e-004 -5.0425582e-004  1.0358664e-003  1.7541436e-002  1.7541436e-002  1.7541973e-002 
 4.3749955e-002  1.8749986e-002  1.5757461e-003 -5.6680414e-004  1.6745874e-003  1.7520418e-002  1.7520418e-002  1.7521821e-002 
 5.6249946e-002  1.8749986e-002  2.2561639e-003 -5.5223383e-004  2.3227651e-003  1.7476022e-002  1.7476022e-002  1.7478719e-002 
 6.8749934e-002  1.8749986e-002  2.8707851e-003 -4.8328476e-004  2.9111803e-003  1.7408390e-002  1.7408390e-002  1.7412627e-002 
 8.1249923e-002  1.8749986e-002  3.3648654e-003 -3.8020095e-004  3.3862770e-003  1.7319378e-002  1.7319378e-002  1.7325111e-002 
 9.3749911e-002  1.8749986e-002  3.7036210e-003 -2.5900765e-004  3.7126667e-003  1.7211536e-002  1.7211536e-002  1.7218428e-002 
 1.0624990e-001  1.8749986e-002  3.8683573e-003 -1.3104707e-004  3.8705764e-003  1.7087212e-002  1.7087212e-002  1.7094703e-002 
 1.1874990e-001  1.8749986e-002  3.8512100e-003 -3.6033869e-006  3.8512116e-003  1.6948082e-002  1.6948082e-002  1.6955497e-002 
 1.3124990e-001  1.8749986e-002  3.6526762e-003  1.1745199e-004  3.6545640e-003  1.6796721e-002  1.6796721e-002  1.6803399e-002 
 1.4374995e-001  1.8749986e-002  3.2759225e-003  2.3376214e-004  3.2842522e-003  1.6632501e-002  1.6632501e-002  1.6637893e-002 
 1.5625000e-001  1.8749986e-002  2.7229304e-003  3.4671431e-004  2.7449154e-003  1.6455654e-002  1.6455654e-002  1.6459422e-002 
 1.6875005e-001  1.8749986e-002  1.9940285e-003  4.5906790e-004  2.0461897e-003  1.6265726e-002  1.6265726e-002  1.6267819e-002 
 1.8125010e-001  1.8749986e-002  1.0858054e-003  5.7433423e-004  1.2283457e-003  1.6061883e-002  1.6061883e-002  1.6062638e-002 
 1.9375014e-001  1.8749986e-002 -8.9546202e-006  6.9591409e-004  6.9597171e-004  1.5843203e-002  1.5843203e-002  1.5843445e-002 
 2.0625019e-001  1.8749986e-002 -1.3011922e-003  8.2660111e-004  1.5415481e-003  1.5608821e-002  1.5608821e-002  1.5610009e-002 
 2.1875025e-001  1.8749986e-002 -2.8038607e-003  9.6831738e-004  2.9663569e-003  1.5358088e-002  1.5358088e-002  1.5362487e-002 
 2.3125030e-001  1.8749986e-002 -4.5309607e-003  1.1218629e-003  4.6677813e-003  1.5090751e-002  1.5090751e-002  1.5101644e-002 
 2.4375033e-001  1.8749986e-002 -6.4959377e-003  1.2869656e-003  6.6221966e-003  1.4807026e-002  1.4807026e-002  1.4828953e-002 
 2.5625038e-001  1.8749986e-002 -8.7102419e-003  1.4623447e-003  8.8321436e-003  1.4507702e-002  1.4507702e-002  1.4546705e-002 
 2.6875046e-001  1.8749986e-002 -1.1181952e-002  1.6458360e-003  1.1302426e-002  1.4194220e-002  1.4194220e-002  1.4258092e-002 
 2.8125051e-001  1.8749986e-002 -1.3914593e-002  1.8344757e-003  1.4034999e-002  1.3868748e-002  1.3868748e-002  1.3967238e-002 
 2.9375049e-001  1.8749986e-002 -1.6906092e-002  2.0245931e-003  1.7026888e-002  1.3534244e-002  1.3534244e-002  1.3679202e-002 
 3.0625054e-001  1.8749986e-002 -2.0147951e-002  2.2118420e-003  2.0268995e-002  1.3194509e-002  1.3194509e-002  1.3399925e-002 
 3.1875062e-001  1.8749986e-002 -2.3624389e-002  2.3912452e-003  2.3745101e-002  1.2854248e-002  1.2854248e-002  1.3136163e-002 
 3.3125067e-001  1.8749986e-002 -2.7311824e-002  2.5573377e-003  2.7431291e-002  1.2519057e-002  1.2519057e-002  1.2895294e-002 
 3.4375072e-001  1.8749986e-002 -3.1178629e-002  2.7042567e-003  3.1295687e-002  1.2195408e-002  1.2195408e-002  1.2685118e-002 
 3.5625076e-001  1.8749986e-002 -3.5184581e-002  2.8255023e-003  3.5297848e-002  1.1890676e-002  1.1890676e-002  1.2513645e-002 
 3.6875081e-001  1.8749986e-002 -3.9281044e-002  2.9149177e-003  3.9389048e-002  1.1612768e-002  1.1612768e-002  1.2388517e-002 
 3.8125086e-001  1.8749986e-002 -4.3412283e-002  2.9661609e-003  4.3513495e-002  1.1369879e-002  1.1369879e-002  1.2316592e-002 
 3.9375091e-001  1.8749986e-002 -4.7514703e-002  2.9720878e-003  4.7607567e-002  1.1171184e-002  1.1171184e-002  1.2304424e-002 
 4.0625095e-001  1.8749986e-002 -5.1518276e-002  2.9276183e-003  5.1601391e-002  1.1025446e-002  1.1025446e-002  1.2356797e-002 
 4.1875100e-001  1.8749986e-002 -5.5349100e-002  2.8282241e-003  5.5421311e-002  1.0940768e-002  1.0940768e-002  1.2476529e-002 
 4.3125105e-001  1.8749986e-002 -5.8931030e-002  2.6704527e-003  5.8991507e-002  1.0924460e-002  1.0924460e-002  1.2664460e-002 
 4.4375110e-001  1.8749986e-002 -6.2186167e-002  2.4517870e-003  6.2234480e-002  1.0982663e-002  1.0982663e-002  1.2919229e-002 
 4.5625114e-001  1.8749986e-002 -6.5038174e-002  2.1714785e-003  6.5074414e-002  1.1119827e-002  1.1119827e-002  1.3237166e-002 
 4.6875119e-001  1.8749986e-002 -6.7414023e-002  1.8302012e-003  6.7438863e-002  1.1338086e-002  1.1338086e-002  1.3612086e-002 
 4.8125124e-001  1.8749986e-002 -6.9244571e-002  1.4278059e-003  6.9259293e-002  1.1637317e-002  1.1637317e-002  1.4035742e-002 
 4.9375129e-001  1.8749986e-002 -7.0463307e-002  9.6440112e-004  7.0469908e-002  1.2015279e-002  1.2015279e-002  1.4498283e-002 
 5.0625134e-001  1.8749986e-002 -7.1013764e-002  4.5606543e-004  7.1015231e-002  1.2466672e-002  1.2466672e-002  1.4988253e-002 
 5.1875138e-001  1.8749986e-002 -7.0881732e-002 -8.1916231e-005  7.0881777e-002  1.2981868e-002  1.2981868e-002  1.5493982e-002 
 5.3125143e-001  1.8749986e-002 -7.0026249e-002 -6.2838453e-004  7.0029065e-002  1.3532588e-002  1.3532588e-002  1.5984623e-002 
 5.4375148e-001  1.8749986e-002 -6.8446681e-002 -1.1992550e-003  6.8457186e-002  1.4120038e-002  1.4120038e-002  1.6463231e-002 
 5.5625153e-001  1.8749986e-002 -6.6135257e-002 -1.7757142e-003  6.6159092e-002  1.4722985e-002  1.4722985e-002  1.6911497e-002 
 5.6875157e-001  1.8749986e-002 -6.3110366e-002 -2.3402264e-003  6.3153744e-002  1.5320878e-002  1.5320878e-002  1.7315075e-002 
 5.8125162e-001  1.8749986e-002 -5.9407424e-002 -2.8764512e-003  5.9477020e-002  1.5892673e-002  1.5892673e-002  1.7661432e-002 
 5.9375167e-001  1.8749986e-002 -5.5078477e-002 -3.3682014e-003  5.5181369e-002  1.6417017e-002  1.6417017e-002  1.7939510e-002 
 6.0625172e-001  1.8749986e-002 -5.0192282e-002 -3.7995579e-003  5.0335888e-002  1.6873257e-002  1.6873257e-002  1.8140107e-002 
 6.1875176e-001  1.8749986e-002 -4.4833116e-002 -4.1556368e-003  4.5025300e-002  1.7242566e-002  1.7242566e-002  1.8256204e-002 
 6.3125181e-001  1.8749986e-002 -3.9100084e-002 -4.4236840e-003  3.9349530e-002  1.7508883e-002  1.7508883e-002  1.8283077e-002 
 6.4375186e-001  1.8749986e-002 -3.3103473e-002 -4.5937756e-003  3.3420693e-002  1.7659836e-002  1.7659836e-002  1.8218307e-002 
 6.5625191e-001  1.8749986e-002 -2.6961423e-002 -4.6601268e-003  2.7361197e-002  1.7688129e-002  1.7688129e-002  1.8062446e-002 
 6.6875196e-001  1.8749986e-002 -2.0795049e-002 -4.6260576e-003  2.1303391e-002  1.7592467e-002  1.7592467e-002  1.7819384e-002 
 6.8125200e-001  1.8749986e-002 -1.4726683e-002 -4.4821319e-003  1.5393658e-002  1.7373687e-002  1.7373687e-002  1.7492170e-002 
 6.9375205e-001  1.8749986e-002 -8.8857552e-003 -4.2299759e-003  9.8412065e-003  1.7039277e-002  1.7039277e-002  1.7087702e-002 
 7.0625210e-001  1.8749986e-002 -3.3959809e-003 -3.8808878e-003  5.1569347e-003  1.6602498e-002  1.6602498e-002  1.6615795e-002 
 7.1875215e-001  1.8749986e-002  1.6334202e-003 -3.4509071e-003  3.8179604e-003  1.6080614e-002  1.6080614e-002  1.6087903e-002 
 7.3125219e-001  1.8749986e-002  6.1087487e-003 -2.9588770e-003  6.7876186e-003  1.5493335e-002  1.5493335e-002  1.5516371e-002 
 7.4375224e-001  1.8749986e-002  9.9629629e-003 -2.4261638e-003  1.0254117e-002  1.4862188e-002  1.4862188e-002  1.4914761e-002 
 7.5625229e-001  1.8749986e-002  1.3147598e-002 -1.8749216e-003  1.3280612e-002  1.4209087e-002  1.4209087e-002  1.4297274e-002 
 7.6875234e-001  1.8749986e-002  1.5641604e-002 -1.3252343e-003  1.5697643e-002  1.3554867e-002  1.3554867e-002  1.3678076e-002 
 7.8125238e-001  1.8749986e-002  1.7440751e-002 -7.9700124e-004  1.7458953e-002  1.2917649e-002  1.2917649e-002  1.3070056e-002 
 7.9375243e-001  1.8749986e-002  1.8571962e-002 -3.0890654e-004  1.8574530e-002  1.2312183e-002  1.2312183e-002  1.2484690e-002 