Variables = "x","y", "Velocity_x", "Velocity_y", "Velocity_whole value", "Pressure", "Absolute pressure", "Total pressure"
Zone i=42, j=42
 0.0000000e+000  0.0000000e+000  0.0000000e+000  0.0000000e+000  0.0000000e+000  1.5210959e-002  1.5210959e-002  1.5210959e-002 
 6.0982401e-003  0.0000000e+000  0.0000000e+000  0.0000000e+000  0.0000000e+000  1.5224954e-002  1.5224954e-002  1.5224954e-002 
 1.8721581e-002  0.0000000e+000  0.0000000e+000  0.0000000e+000  0.0000000e+000  1.5253922e-002  1.5253922e-002  1.5253922e-002 
 3.2228529e-002  0.0000000e+000  0.0000000e+000  0.0000000e+000  0.0000000e+000  1.5267750e-002  1.5267750e-002  1.5267750e-002 
 4.6680957e-002  0.0000000e+000  0.0000000e+000  0.0000000e+000  0.0000000e+000  1.5248251e-002  1.5248251e-002  1.5248251e-002 
 6.2145084e-002  0.0000000e+000  0.0000000e+000  0.0000000e+000  0.0000000e+000  1.5182475e-002  1.5182475e-002  1.5182475e-002 
 7.8691721e-002  0.0000000e+000  0.0000000e+000  0.0000000e+000  0.0000000e+000  1.5064646e-002  1.5064646e-002  1.5064646e-002 
 9.6396603e-002  0.0000000e+000  0.0000000e+000  0.0000000e+000  0.0000000e+000  1.4894268e-002  1.4894268e-002  1.4894268e-002 
 1.1534080e-001  0.0000000e+000  0.0000000e+000  0.0000000e+000  0.0000000e+000  1.4673389e-002  1.4673389e-002  1.4673389e-002 
 1.3561110e-001  0.0000000e+000  0.0000000e+000  0.0000000e+000  0.0000000e+000  1.4401612e-002  1.4401612e-002  1.4401612e-002 
 1.5730035e-001  0.0000000e+000  0.0000000e+000  0.0000000e+000  0.0000000e+000  1.4075559e-002  1.4075559e-002  1.4075559e-002 
 1.8050785e-001  0.0000000e+000  0.0000000e+000  0.0000000e+000  0.0000000e+000  1.3682813e-002  1.3682813e-002  1.3682813e-002 
 2.0533991e-001  0.0000000e+000  0.0000000e+000  0.0000000e+000  0.0000000e+000  1.3203407e-002  1.3203407e-002  1.3203407e-002 
 2.3191020e-001  0.0000000e+000  0.0000000e+000  0.0000000e+000  0.0000000e+000  1.2613371e-002  1.2613371e-002  1.2613371e-002 
 2.6034039e-001  0.0000000e+000  0.0000000e+000  0.0000000e+000  0.0000000e+000  1.1892450e-002  1.1892450e-002  1.1892450e-002 
 2.9076070e-001  0.0000000e+000  0.0000000e+000  0.0000000e+000  0.0000000e+000  1.1035916e-002  1.1035916e-002  1.1035916e-002 
 3.2331041e-001  0.0000000e+000  0.0000000e+000  0.0000000e+000  0.0000000e+000  1.0073530e-002  1.0073530e-002  1.0073530e-002 
 3.5813856e-001  0.0000000e+000  0.0000000e+000  0.0000000e+000  0.0000000e+000  9.0987328e-003  9.0987328e-003  9.0987328e-003 
 3.9540476e-001  0.0000000e+000  0.0000000e+000  0.0000000e+000  0.0000000e+000  8.3148004e-003  8.3148004e-003  8.3148004e-003 
 4.3527961e-001  0.0000000e+000  0.0000000e+000  0.0000000e+000  0.0000000e+000  8.0777034e-003  8.0777034e-003  8.0777034e-003 
 4.7794560e-001  0.0000000e+000  0.0000000e+000  0.0000000e+000  0.0000000e+000  8.9643979e-003  8.9643979e-003  8.9643979e-003 
 5.2205443e-001  0.0000000e+000  0.0000000e+000  0.0000000e+000  0.0000000e+000  1.1094740e-002  1.1094740e-002  1.1094740e-002 
 5.6472039e-001  0.0000000e+000  0.0000000e+000  0.0000000e+000  0.0000000e+000  1.3772592e-002  1.3772592e-002  1.3772592e-002 
 6.0459524e-001  0.0000000e+000  0.0000000e+000  0.0000000e+000  0.0000000e+000  1.6161868e-002  1.6161868e-002  1.6161868e-002 
 6.4186144e-001  0.0000000e+000  0.0000000e+000  0.0000000e+000  0.0000000e+000  1.7584614e-002  1.7584614e-002  1.7584614e-002 
 6.7668962e-001  0.0000000e+000  0.0000000e+000  0.0000000e+000  0.0000000e+000  1.7797746e-002  1.7797746e-002  1.7797746e-002 
 7.0923930e-001  0.0000000e+000  0.0000000e+000  0.0000000e+000  0.0000000e+000  1.6978424e-002  1.6978424e-002  1.6978424e-002 
 7.3965955e-001  0.0000000e+000  0.0000000e+000  0.0000000e+000  0.0000000e+000  1.5420622e-002  1.5420622e-002  1.5420622e-002 
 7.6808977e-001  0.0000000e+000  0.0000000e+000  0.0000000e+000  0.0000000e+000  1.3641912e-002  1.3641912e-002  1.3641912e-002 
 7.9466009e-001  0.0000000e+000  0.0000000e+000  0.0000000e+000  0.0000000e+000  1.2030848e-002  1.2030848e-002  1.2030848e-002 
 8.1949216e-001  0.0000000e+000  0.0000000e+000  0.0000000e+000  0.0000000e+000  1.0740059e-002  1.0740059e-002  1.0740059e-002 
 8.4269965e-001  0.0000000e+000  0.0000000e+000  0.0000000e+000  0.0000000e+000  9.7881285e-003  9.7881285e-003  9.7881285e-003 
 8.6438888e-001  0.0000000e+000  0.0000000e+000  0.0000000e+000  0.0000000e+000  9.1300728e-003  9.1300728e-003  9.1300728e-003 
 8.8465917e-001  0.0000000e+000  0.0000000e+000  0.0000000e+000  0.0000000e+000  8.6983005e-003  8.6983005e-003  8.6983005e-003 
 9.0360343e-001  0.0000000e+000  0.0000000e+000  0.0000000e+000  0.0000000e+000  8.4318919e-003  8.4318919e-003  8.4318919e-003 
 9.2130828e-001  0.0000000e+000  0.0000000e+000  0.0000000e+000  0.0000000e+000  8.2842968e-003  8.2842968e-003  8.2842968e-003 
 9.3785501e-001  0.0000000e+000  0.0000000e+000  0.0000000e+000  0.0000000e+000  8.2238149e-003  8.2238149e-003  8.2238149e-003 
 9.5331907e-001  0.0000000e+000  0.0000000e+000  0.0000000e+000  0.0000000e+000  8.2283607e-003  8.2283607e-003  8.2283607e-003 
 9.6777147e-001  0.0000000e+000  0.0000000e+000  0.0000000e+000  0.0000000e+000  8.2772831e-003  8.2772831e-003  8.2772831e-003 
 9.8127842e-001  0.0000000e+000  0.0000000e+000  0.0000000e+000  0.0000000e+000  8.3435969e-003  8.3435969e-003  8.3435969e-003 
 9.9390173e-001  0.0000000e+000  0.0000000e+000  0.0000000e+000  0.0000000e+000  8.3986325e-003  8.3986325e-003  8.3986325e-003 
 1.0000000e+000  0.0000000e+000  0.0000000e+000  0.0000000e+000  0.0000000e+000  8.4252199e-003  8.4252199e-003  8.4252199e-003 
 0.0000000e+000  6.0982401e-003  0.0000000e+000  0.0000000e+000  0.0000000e+000  1.5197102e-002  1.5197102e-002  1.5197102e-002 
 6.0982401e-003  6.0982401e-003 -1.7620734e-005  1.7299421e-005  2.4693323e-005  1.5211105e-002  1.5211105e-002  1.5211105e-002 
 1.8721581e-002  6.0982401e-003  8.0586935e-005 -2.4894644e-005  8.4344516e-005  1.5240092e-002  1.5240092e-002  1.5240096e-002 
 3.2228529e-002  6.0982401e-003  3.2792016e-004 -5.2853069e-005  3.3215218e-004  1.5250623e-002  1.5250623e-002  1.5250678e-002 
 4.6680957e-002  6.0982401e-003  6.6331972e-004 -6.1821185e-005  6.6619436e-004  1.5229091e-002  1.5229091e-002  1.5229313e-002 
 6.2145084e-002  6.0982401e-003  1.0253245e-003 -5.8353471e-005  1.0269836e-003  1.5164459e-002  1.5164459e-002  1.5164986e-002 
 7.8691721e-002  6.0982401e-003  1.3542044e-003 -4.7733316e-005  1.3550454e-003  1.5050880e-002  1.5050880e-002  1.5051798e-002 
 9.6396603e-002  6.0982401e-003  1.5977065e-003 -3.4264387e-005  1.5980739e-003  1.4887176e-002  1.4887176e-002  1.4888452e-002 
 1.1534080e-001  6.0982401e-003  1.7166765e-003 -2.1073254e-005  1.7168059e-003  1.4674461e-002  1.4674461e-002  1.4675934e-002 
 1.3561110e-001  6.0982401e-003  1.6853393e-003 -1.1917159e-005  1.6853814e-003  1.4412172e-002  1.4412172e-002  1.4413592e-002 
 1.5730035e-001  6.0982401e-003  1.4842354e-003 -5.3587096e-006  1.4842451e-003  1.4096246e-002  1.4096246e-002  1.4097348e-002 
 1.8050785e-001  6.0982401e-003  1.0882249e-003  2.0421453e-008  1.0882249e-003  1.3714675e-002  1.3714675e-002  1.3715267e-002 
 2.0533991e-001  6.0982401e-003  4.4739264e-004  7.2310377e-006  4.4745108e-004  1.3248238e-002  1.3248238e-002  1.3248337e-002 
 2.3191020e-001  6.0982401e-003 -5.2591937e-004  1.9723759e-005  5.2628911e-004  1.2673723e-002  1.2673723e-002  1.2673861e-002 
 2.6034039e-001  6.0982401e-003 -1.9609351e-003  4.0412371e-005  1.9613514e-003  1.1971089e-002  1.1971089e-002  1.1973012e-002 
 2.9076070e-001  6.0982401e-003 -4.0162639e-003  7.1429189e-005  4.0168990e-003  1.1134764e-002  1.1134764e-002  1.1142832e-002 
 3.2331041e-001  6.0982401e-003 -6.8506482e-003  1.1379806e-004  6.8515935e-003  1.0192120e-002  1.0192120e-002  1.0215592e-002 
 3.5813856e-001  6.0982401e-003 -1.0571444e-002  1.6776536e-004  1.0572775e-002  9.2320573e-003  9.2320573e-003  9.2879487e-003 
 3.9540476e-001  6.0982401e-003 -1.5139078e-002  2.3189446e-004  1.5140854e-002  8.4482906e-003  8.4482906e-003  8.5629132e-003 
 4.3527961e-001  6.0982401e-003 -2.0202009e-002  2.8877796e-004  2.0204073e-002  8.1864446e-003  8.1864446e-003  8.3905468e-003 
 4.7794560e-001  6.0982401e-003 -2.4578568e-002  2.5286202e-004  2.4579868e-002  9.0180179e-003  9.0180179e-003  9.3201026e-003 
 5.2205443e-001  6.0982401e-003 -2.6373249e-002  5.8489113e-005  2.6373314e-002  1.1085683e-002  1.1085683e-002  1.1433458e-002 
 5.6472039e-001  6.0982401e-003 -2.4901902e-002 -5.6283799e-005  2.4901966e-002  1.3676697e-002  1.3676697e-002  1.3986751e-002 
 6.0459524e-001  6.0982401e-003 -2.0393582e-002 -2.4350418e-004  2.0395035e-002  1.6002625e-002  1.6002625e-002  1.6210604e-002 
 6.4186144e-001  6.0982401e-003 -1.3888249e-002 -3.6986230e-004  1.3893173e-002  1.7389501e-002  1.7389501e-002  1.7486010e-002 
 6.7668962e-001  6.0982401e-003 -6.8631917e-003 -3.9678786e-004  6.8746521e-003  1.7595511e-002  1.7595511e-002  1.7619140e-002 
 7.0923930e-001  6.0982401e-003 -4.6671534e-004 -3.5329539e-004  5.8535533e-004  1.6795278e-002  1.6795278e-002  1.6795449e-002 
 7.3965955e-001  6.0982401e-003  4.4224351e-003 -2.0679249e-004  4.4272672e-003  1.5277350e-002  1.5277350e-002  1.5287151e-002 
 7.6808977e-001  6.0982401e-003  7.2709480e-003 -4.4306140e-005  7.2710831e-003  1.3550152e-002  1.3550152e-002  1.3576587e-002 
 7.9466009e-001  6.0982401e-003  8.3482089e-003  6.6999120e-005  8.3484780e-003  1.1989501e-002  1.1989501e-002  1.2024350e-002 
 8.1949216e-001  6.0982401e-003  8.2214568e-003  1.3001861e-004  8.2224850e-003  1.0739593e-002  1.0739593e-002  1.0773397e-002 
 8.4269965e-001  6.0982401e-003  7.4019316e-003  1.5614867e-004  7.4035786e-003  9.8170992e-003  9.8170992e-003  9.8445052e-003 
 8.6438888e-001  6.0982401e-003  6.2505025e-003  1.5683770e-004  6.2524700e-003  9.1782594e-003  9.1782594e-003  9.1978060e-003 
 8.8465917e-001  6.0982401e-003  5.0088107e-003  1.4622313e-004  5.0109448e-003  8.7569067e-003  8.7569067e-003  8.7694619e-003 
 9.0360343e-001  6.0982401e-003  3.8078527e-003  1.3223011e-004  3.8101480e-003  8.4943157e-003  8.4943157e-003  8.5015744e-003 
 9.2130828e-001  6.0982401e-003  2.7120812e-003  1.1874487e-004  2.7146796e-003  8.3455928e-003  8.3455928e-003  8.3492771e-003 
 9.3785501e-001  6.0982401e-003  1.7549478e-003  1.0517067e-004  1.7580964e-003  8.2798656e-003  8.2798656e-003  8.2814107e-003 
 9.5331907e-001  6.0982401e-003  9.6591335e-004  8.5823172e-005  9.6971862e-004  8.2756756e-003  8.2756756e-003  8.2761459e-003 
 9.6777147e-001  6.0982401e-003  3.8075441e-004  5.2564530e-005  3.8436565e-004  8.3134593e-003  8.3134593e-003  8.3135329e-003 
 9.8127842e-001  6.0982401e-003  3.3299682e-005 -2.1865767e-006  3.3371394e-005  8.3702346e-003  8.3702346e-003  8.3702356e-003 
 9.9390173e-001  6.0982401e-003 -5.6065612e-005 -5.6573059e-005  7.9648373e-005  8.4252954e-003  8.4252954e-003  8.4252981e-003 
 1.0000000e+000  6.0982401e-003  0.0000000e+000  0.0000000e+000  0.0000000e+000  8.4518949e-003  8.4518949e-003  8.4518949e-003 
 0.0000000e+000  1.8721581e-002  0.0000000e+000  0.0000000e+000  0.0000000e+000  1.5168418e-002  1.5168418e-002  1.5168418e-002 
 6.0982401e-003  1.8721581e-002  2.4330842e-005 -8.0242862e-005  8.3850500e-005  1.5182439e-002  1.5182439e-002  1.5182443e-002 
 1.8721581e-002  1.8721581e-002  3.2765261e-004 -3.2776859e-004  4.6345277e-004  1.5211463e-002  1.5211463e-002  1.5211570e-002 
 3.2228529e-002  1.8721581e-002  9.2975289e-004 -4.9849279e-004  1.0549576e-003  1.5215171e-002  1.5215171e-002  1.5215728e-002 
 4.6680957e-002  1.8721581e-002  1.7084921e-003 -5.5846950e-004  1.7974519e-003  1.5189430e-002  1.5189430e-002  1.5191046e-002 
 6.2145084e-002  1.8721581e-002  2.5330102e-003 -5.1906524e-004  2.5856467e-003  1.5127168e-002  1.5127168e-002  1.5130511e-002 
 7.8691721e-002  1.8721581e-002  3.2630942e-003 -4.0312394e-004  3.2879009e-003  1.5022385e-002  1.5022385e-002  1.5027790e-002 
 9.6396603e-002  1.8721581e-002  3.7618976e-003 -2.3811558e-004  3.7694259e-003  1.4872492e-002  1.4872492e-002  1.4879596e-002 
 1.1534080e-001  1.8721581e-002  3.9111008e-003 -5.0206061e-005  3.9114230e-003  1.4676680e-002  1.4676680e-002  1.4684330e-002 
 1.3561110e-001  1.8721581e-002  3.6167048e-003  1.4119076e-004  3.6194597e-003  1.4434032e-002  1.4434032e-002  1.4440582e-002 
 1.5730035e-001  1.8721581e-002  2.7920620e-003  3.3379626e-004  2.8119441e-003  1.4139069e-002  1.4139069e-002  1.4143023e-002 
 1.8050785e-001  1.8721581e-002  1.3320751e-003  5.3965498e-004  1.4372375e-003  1.3780628e-002  1.3780628e-002  1.3781661e-002 
 2.0533991e-001  1.8721581e-002 -9.3019486e-004  7.8304118e-004  1.2159013e-003  1.3341038e-002  1.3341038e-002  1.3341778e-002 
 2.3191020e-001  1.8721581e-002 -4.2546024e-003  1.0893843e-003  4.3918560e-003  1.2798650e-002  1.2798650e-002  1.2808294e-002 
 2.6034039e-001  1.8721581e-002 -8.9939814e-003  1.4726338e-003  9.1137448e-003  1.2133871e-002  1.2133871e-002  1.2175402e-002 
 2.9076070e-001  1.8721581e-002 -1.5547958e-002  1.9255382e-003  1.5666738e-002  1.1339379e-002  1.1339379e-002  1.1462102e-002 
 3.2331041e-001  1.8721581e-002 -2.4258902e-002  2.4106184e-003  2.4378380e-002  1.0437600e-002  1.0437600e-002  1.0734753e-002 
 3.5813856e-001  1.8721581e-002 -3.5237107e-002  2.8507677e-003  3.5352238e-002  9.5080379e-003  9.5080379e-003  1.0132928e-002 
 3.9540476e-001  1.8721581e-002 -4.8062924e-002  3.0932261e-003  4.8162360e-002  8.7246150e-003  8.7246150e-003  9.8844217e-003 
 4.3527961e-001  1.8721581e-002 -6.1327994e-002  2.8888376e-003  6.1395995e-002  8.4115388e-003  8.4115388e-003  1.0296273e-002 
 4.7794560e-001  1.8721581e-002 -7.1758606e-002  1.8320247e-003  7.1781985e-002  9.1290101e-003  9.1290101e-003  1.1705337e-002 
 5.2205443e-001  1.8721581e-002 -7.4931905e-002  5.0927945e-005  7.4931920e-002  1.1066934e-002  1.1066934e-002  1.3874331e-002 
 5.6472039e-001  1.8721581e-002 -6.9763988e-002 -1.7574960e-003  6.9786124e-002  1.3478196e-002  1.3478196e-002  1.5913248e-002 
 6.0459524e-001  1.8721581e-002 -5.7247393e-002 -3.5006600e-003  5.7354324e-002  1.5672991e-002  1.5672991e-002  1.7317750e-002 
 6.4186144e-001  1.8721581e-002 -4.0217880e-002 -4.5815543e-003  4.0478002e-002  1.6985616e-002  1.6985616e-002  1.7804850e-002 
 6.7668962e-001  1.8721581e-002 -2.2124846e-002 -4.8218300e-003  2.2644179e-002  1.7176885e-002  1.7176885e-002  1.7433265e-002 
 7.0923930e-001  1.8721581e-002 -5.5993171e-003 -4.3593124e-003  7.0961933e-003  1.6416166e-002  1.6416166e-002  1.6441343e-002 
 7.3965955e-001  1.8721581e-002  7.4086022e-003 -3.1622087e-003  8.0552436e-003  1.4980778e-002  1.4980778e-002  1.5013222e-002 
 7.6808977e-001  1.8721581e-002  1.5641041e-002 -1.6952469e-003  1.5732642e-002  1.3360208e-002  1.3360208e-002  1.3483966e-002 
 7.9466009e-001  1.8721581e-002  1.9497035e-002 -4.3512209e-004  1.9501889e-002  1.1903913e-002  1.1903913e-002  1.2094075e-002 
 8.1949216e-001  1.8721581e-002  2.0139867e-002  4.8169310e-004  2.0145627e-002  1.0738627e-002  1.0738627e-002  1.0941550e-002 
 8.4269965e-001  1.8721581e-002  1.8780336e-002  1.0675972e-003  1.8810656e-002  9.8770689e-003  9.8770689e-003  1.0053989e-002 
 8.6438888e-001  1.8721581e-002  1.6302492e-002  1.3866801e-003  1.6361361e-002  9.2780050e-003  9.2780050e-003  9.4118519e-003 
 8.8465917e-001  1.8721581e-002  1.3368923e-002  1.5174079e-003  1.3454762e-002  8.8782217e-003  8.8782217e-003  8.9687370e-003 
 9.0360343e-001  1.8721581e-002  1.0384486e-002  1.5278704e-003  1.0496282e-002  8.6235320e-003  8.6235320e-003  8.6786179e-003 
 9.2130828e-001  1.8721581e-002  7.5814896e-003  1.4608003e-003  7.7209407e-003  8.4724743e-003  8.4724743e-003  8.5022803e-003 
 9.3785501e-001  1.8721581e-002  5.0968365e-003  1.3285589e-003  5.2671446e-003  8.3958907e-003  8.3958907e-003  8.4097618e-003 
 9.5331907e-001  1.8721581e-002  3.0276873e-003  1.1187571e-003  3.2277713e-003  8.3736172e-003  8.3736172e-003  8.3788261e-003 
 9.6777147e-001  1.8721581e-002  1.4532752e-003  8.1452262e-004  1.6659700e-003  8.3883442e-003  8.3883442e-003  8.3897319e-003 
 9.8127842e-001  1.8721581e-002  4.2997088e-004  4.2048842e-004  6.0140289e-004  8.4253754e-003  8.4253754e-003  8.4255561e-003 
 9.9390173e-001  1.8721581e-002  8.8472814e-007  3.4273558e-005  3.4284974e-005  8.4804874e-003  8.4804874e-003  8.4804883e-003 
 1.0000000e+000  1.8721581e-002  0.0000000e+000  0.0000000e+000  0.0000000e+000  8.5071111e-003  8.5071111e-003  8.5071111e-003 
 0.0000000e+000  3.2228529e-002  0.0000000e+000  0.0000000e+000  0.0000000e+000  1.5153972e-002  1.5153972e-002  1.5153972e-002 
 6.0982401e-003  3.2228529e-002  5.2968342e-005 -3.2709999e-004  3.3136090e-004  1.5171398e-002  1.5171398e-002  1.5171453e-002 
 1.8721581e-002  3.2228529e-002  5.0285290e-004 -9.3069597e-004  1.0578544e-003  1.5207470e-002  1.5207470e-002  1.5208030e-002 
 3.2228529e-002  3.2228529e-002  1.3238644e-003 -1.3156238e-003  1.8664091e-003  1.5210810e-002  1.5210810e-002  1.5212552e-002 
 4.6680957e-002  3.2228529e-002  2.3338192e-003 -1.4346208e-003  2.7394979e-003  1.5183447e-002  1.5183447e-002  1.5187199e-002 
 6.2145084e-002  3.2228529e-002  3.3523845e-003 -1.3027599e-003  3.5966185e-003  1.5121858e-002  1.5121858e-002  1.5128326e-002 
 7.8691721e-002  3.2228529e-002  4.1847480e-003 -9.6436223e-004  4.2944280e-003  1.5021169e-002  1.5021169e-002  1.5030390e-002 
 9.6396603e-002  3.2228529e-002  4.6293284e-003 -4.8048256e-004  4.6541966e-003  1.4879129e-002  1.4879129e-002  1.4889959e-002 
 1.1534080e-001  3.2228529e-002  4.4970722e-003  8.6860193e-005  4.4979108e-003  1.4695017e-002  1.4695017e-002  1.4705133e-002 
 1.3561110e-001  3.2228529e-002  3.6120950e-003  6.9415086e-004  3.6781891e-003  1.4467262e-002  1.4467262e-002  1.4474026e-002 
 1.5730035e-001  3.2228529e-002  1.8000815e-003  1.3319058e-003  2.2392557e-003  1.4190302e-002  1.4190302e-002  1.4192809e-002 
 1.8050785e-001  3.2228529e-002 -1.1548694e-003  2.0306553e-003  2.3360832e-003  1.3852747e-002  1.3852747e-002  1.3855476e-002 
 2.0533991e-001  3.2228529e-002 -5.5568148e-003  2.8500471e-003  6.2450748e-003  1.3436775e-002  1.3436775e-002  1.3456275e-002 
 2.3191020e-001  3.2228529e-002 -1.1833915e-002  3.8479671e-003  1.2443809e-002  1.2920317e-002  1.2920317e-002  1.2997742e-002 
 2.6034039e-001  3.2228529e-002 -2.0514177e-002  5.0424347e-003  2.1124810e-002  1.2282175e-002  1.2282175e-002  1.2505304e-002 
 2.9076070e-001  3.2228529e-002 -3.2121599e-002  6.3795182e-003  3.2748975e-002  1.1511238e-002  1.1511238e-002  1.2047486e-002 
 3.2331041e-001  3.2228529e-002 -4.6975341e-002  7.7067139e-003  4.7603320e-002  1.0623270e-002  1.0623270e-002  1.1756307e-002 
 3.5813856e-001  3.2228529e-002 -6.4887680e-002  8.7369140e-003  6.5473236e-002  9.6859057e-003  9.6859057e-003  1.1829278e-002 
 3.9540476e-001  3.2228529e-002 -8.4644534e-002  8.9707691e-003  8.5118577e-002  8.8556763e-003  8.8556763e-003  1.2478262e-002 
 4.3527961e-001  3.2228529e-002 -1.0357695e-001  7.7618286e-003  1.0386737e-001  8.4592272e-003  8.4592272e-003  1.3853443e-002 
 4.7794560e-001  3.2228529e-002 -1.1687837e-001  4.3665692e-003  1.1695991e-001  9.0754963e-003  9.0754963e-003  1.5915306e-002 
 5.2205443e-001  3.2228529e-002 -1.1938787e-001 -5.4988969e-004  1.1938914e-001  1.0906139e-002  1.0906139e-002  1.8033022e-002 
 5.6472039e-001  3.2228529e-002 -1.1006527e-001 -5.6381230e-003  1.1020958e-001  1.3239753e-002  1.3239753e-002  1.9312829e-002 
 6.0459524e-001  3.2228529e-002 -9.1146655e-002 -1.0173811e-002  9.1712698e-002  1.5386774e-002  1.5386774e-002  1.9592384e-002 
 6.4186144e-001  3.2228529e-002 -6.6563435e-002 -1.2933297e-002  6.7808270e-002  1.6683720e-002  1.6683720e-002  1.8982701e-002 
 6.7668962e-001  3.2228529e-002 -4.0624738e-002 -1.3575749e-002  4.2833053e-002  1.6880672e-002  1.6880672e-002  1.7798008e-002 
 7.0923930e-001  3.2228529e-002 -1.6687993e-002 -1.2415097e-002  2.0799609e-002  1.6143225e-002  1.6143225e-002  1.6359538e-002 
 7.3965955e-001  3.2228529e-002  2.8554588e-003 -9.4378116e-003  9.8603209e-003  1.4745184e-002  1.4745184e-002  1.4793797e-002 
 7.6808977e-001  3.2228529e-002  1.6200732e-002 -5.6505059e-003  1.7157855e-002  1.3167911e-002  1.3167911e-002  1.3315107e-002 
 7.9466009e-001  3.2228529e-002  2.3521638e-002 -2.1910346e-003  2.3623465e-002  1.1768182e-002  1.1768182e-002  1.2047216e-002 
 8.1949216e-001  3.2228529e-002  2.6124438e-002  4.8255041e-004  2.6128894e-002  1.0658022e-002  1.0658022e-002  1.0999382e-002 
 8.4269965e-001  3.2228529e-002  2.5505630e-002  2.3216845e-003  2.5611080e-002  9.8440265e-003  9.8440265e-003  1.0171990e-002 
 8.6438888e-001  3.2228529e-002  2.2899171e-002  3.4421359e-003  2.3156432e-002  9.2823366e-003  9.2823366e-003  9.5504466e-003 
 8.8465917e-001  3.2228529e-002  1.9279366e-002  4.0078699e-003  1.9691546e-002  8.9092413e-003  8.9092413e-003  9.1031194e-003 
 9.0360343e-001  3.2228529e-002  1.5313385e-002  4.1841893e-003  1.5874734e-002  8.6704306e-003  8.6704306e-003  8.7964339e-003 
 9.2130828e-001  3.2228529e-002  1.1425681e-002  4.0881755e-003  1.2135047e-002  8.5261073e-003  8.5261073e-003  8.5997367e-003 
 9.3785501e-001  3.2228529e-002  7.8826034e-003  3.7698930e-003  8.7377075e-003  8.4484173e-003  8.4484173e-003  8.4865913e-003 
 9.5331907e-001  3.2228529e-002  4.8621059e-003  3.2268504e-003  5.8354638e-003  8.4200995e-003  8.4200995e-003  8.4371259e-003 
 9.6777147e-001  3.2228529e-002  2.4882047e-003  2.4471867e-003  3.4899693e-003  8.4272744e-003  8.4272744e-003  8.4333643e-003 
 9.8127842e-001  3.2228529e-002  8.5075729e-004  1.4565836e-003  1.6868385e-003  8.4631061e-003  8.4631061e-003  8.4645292e-003 
 9.9390173e-001  3.2228529e-002  6.3666484e-005  3.9829739e-004  4.0335374e-004  8.5368110e-003  8.5368110e-003  8.5368920e-003 
 1.0000000e+000  3.2228529e-002  0.0000000e+000  0.0000000e+000  0.0000000e+000  8.5724173e-003  8.5724173e-003  8.5724173e-003 
 0.0000000e+000  4.6680957e-002  0.0000000e+000  0.0000000e+000  0.0000000e+000  1.5172332e-002  1.5172332e-002  1.5172332e-002 
 6.0982401e-003  4.6680957e-002  6.4978638e-005 -6.6789053e-004  6.7104393e-004  1.5191731e-002  1.5191731e-002  1.5191956e-002 
 1.8721581e-002  4.6680957e-002  5.7511742e-004 -1.7200398e-003  1.8136419e-003  1.5231889e-002  1.5231889e-002  1.5233533e-002 
 3.2228529e-002  4.6680957e-002  1.4635382e-003 -2.3313009e-003  2.7526184e-003  1.5234846e-002  1.5234846e-002  1.5238634e-002 
 4.6680957e-002  4.6680957e-002  2.4947368e-003 -2.4662958e-003  3.5080374e-003  1.5205440e-002  1.5205440e-002  1.5211593e-002 
 6.2145084e-002  4.6680957e-002  3.4451175e-003 -2.1530495e-003  4.0625678e-003  1.5142827e-002  1.5142827e-002  1.5151080e-002 
 7.8691721e-002  4.6680957e-002  4.0765386e-003 -1.4602941e-003  4.3301992e-003  1.5043729e-002  1.5043729e-002  1.5053105e-002 
 9.6396603e-002  4.6680957e-002  4.1344780e-003 -4.8477831e-004  4.1628019e-003  1.4906911e-002  1.4906911e-002  1.4915575e-002 
 1.1534080e-001  4.6680957e-002  3.3642082e-003  6.7523308e-004  3.4313025e-003  1.4732371e-002  1.4732371e-002  1.4738258e-002 
 1.3561110e-001  4.6680957e-002  1.5061407e-003  1.9500272e-003  2.4639533e-003  1.4518669e-002  1.4518669e-002  1.4521704e-002 
 1.5730035e-001  4.6680957e-002 -1.7197130e-003  3.3262244e-003  3.7444867e-003  1.4259752e-002  1.4259752e-002  1.4266763e-002 
 1.8050785e-001  4.6680957e-002 -6.6548665e-003  4.8576756e-003  8.2391901e-003  1.3943164e-002  1.3943164e-002  1.3977106e-002 
 2.0533991e-001  4.6680957e-002 -1.3752642e-002  6.6421158e-003  1.5272618e-002  1.3549293e-002  1.3549293e-002  1.3665920e-002 
 2.3191020e-001  4.6680957e-002 -2.3587789e-002  8.7592648e-003  2.5161648e-002  1.3052985e-002  1.3052985e-002  1.3369540e-002 
 2.6034039e-001  4.6680957e-002 -3.6782790e-002  1.1195556e-002  3.8448852e-002  1.2428527e-002  1.2428527e-002  1.3167684e-002 
 2.9076070e-001  4.6680957e-002 -5.3822733e-002  1.3779180e-002  5.5558551e-002  1.1657444e-002  1.1657444e-002  1.3200820e-002 
 3.2331041e-001  4.6680957e-002 -7.4757069e-002  1.6131239e-002  7.6477684e-002  1.0744179e-002  1.0744179e-002  1.3668597e-002 
 3.5813856e-001  4.6680957e-002 -9.8778963e-002  1.7590759e-002  1.0033303e-001  9.7347749e-003  9.7347749e-003  1.4768134e-002 
 3.9540476e-001  4.6680957e-002 -1.2365308e-001  1.7240036e-002  1.2484912e-001  8.7935701e-003  8.7935701e-003  1.6587222e-002 
 4.3527961e-001  4.6680957e-002 -1.4562684e-001  1.4006708e-002  1.4629889e-001  8.2568275e-003  8.2568275e-003  1.8958511e-002 
 4.7794560e-001  4.6680957e-002 -1.5932822e-001  7.1188305e-003  1.5948717e-001  8.7665366e-003  8.7665366e-003  2.1484617e-002 
 5.2205443e-001  4.6680957e-002 -1.6056162e-001 -2.1578530e-003  1.6057612e-001  1.0519177e-002  1.0519177e-002  2.3411522e-002 
 5.6472039e-001  4.6680957e-002 -1.4750560e-001 -1.1487450e-002  1.4795223e-001  1.2805515e-002  1.2805515e-002  2.3750447e-002 
 6.0459524e-001  4.6680957e-002 -1.2436932e-001 -1.9495985e-002  1.2588814e-001  1.4970619e-002  1.4970619e-002  2.2894530e-002 
 6.4186144e-001  4.6680957e-002 -9.4968610e-002 -2.4404638e-002  9.8054186e-002  1.6308093e-002  1.6308093e-002  2.1115405e-002 
 6.7668962e-001  4.6680957e-002 -6.3777827e-002 -2.5678670e-002  6.8753220e-002  1.6547715e-002  1.6547715e-002  1.8911218e-002 
 7.0923930e-001  4.6680957e-002 -3.4434017e-002 -2.3830496e-002  4.1875936e-002  1.5845403e-002  1.5845403e-002  1.6722200e-002 
 7.3965955e-001  4.6680957e-002 -9.4810454e-003 -1.8801266e-002  2.1056538e-002  1.4479849e-002  1.4479849e-002  1.4701539e-002 
 7.6808977e-001  4.6680957e-002  8.8615632e-003 -1.2202187e-002  1.5080473e-002  1.2907289e-002  1.2907289e-002  1.3021000e-002 
 7.9466009e-001  4.6680957e-002  2.0253781e-002 -5.8195866e-003  2.1073282e-002  1.1545579e-002  1.1545579e-002  1.1767620e-002 
 8.1949216e-001  4.6680957e-002  2.5856800e-002 -6.5065373e-004  2.5864985e-002  1.0480241e-002  1.0480241e-002  1.0814739e-002 
 8.4269965e-001  4.6680957e-002  2.7113544e-002  3.1027088e-003  2.7290493e-002  9.7119920e-003  9.7119920e-003  1.0084378e-002 
 8.6438888e-001  4.6680957e-002  2.5524462e-002  5.5551813e-003  2.6121987e-002  9.1917925e-003  9.1917925e-003  9.5329713e-003 
 8.8465917e-001  4.6680957e-002  2.2237228e-002  6.9501931e-003  2.3298059e-002  8.8548735e-003  8.8548735e-003  9.1262730e-003 
 9.0360343e-001  4.6680957e-002  1.8136552e-002  7.5494559e-003  1.9645071e-002  8.6433487e-003  8.6433487e-003  8.8363132e-003 
 9.2130828e-001  4.6680957e-002  1.3838328e-002  7.5576873e-003  1.5767625e-002  8.5167391e-003  8.5167391e-003  8.6410483e-003 
 9.3785501e-001  4.6680957e-002  9.7546531e-003  7.0939069e-003  1.2061375e-002  8.4481435e-003  8.4481435e-003  8.5208816e-003 
 9.5331907e-001  4.6680957e-002  6.1619319e-003  6.1819074e-003  8.7284241e-003  8.4229745e-003  8.4229745e-003  8.4610675e-003 
 9.6777147e-001  4.6680957e-002  3.2475786e-003  4.8262244e-003  5.8171479e-003  8.4310388e-003  8.4310388e-003  8.4479582e-003 
 9.8127842e-001  4.6680957e-002  1.1594763e-003  3.0610978e-003  3.2733325e-003  8.4723849e-003  8.4723849e-003  8.4777419e-003 
 9.9390173e-001  4.6680957e-002  1.0353053e-004  1.0199823e-003  1.0252231e-003  8.5659949e-003  8.5659949e-003  8.5665202e-003 
 1.0000000e+000  4.6680957e-002  0.0000000e+000  0.0000000e+000  0.0000000e+000  8.6112171e-003  8.6112171e-003  8.6112171e-003 
 0.0000000e+000  6.2145084e-002  0.0000000e+000  0.0000000e+000  0.0000000e+000  1.5238821e-002  1.5238821e-002  1.5238821e-002 
 6.0982401e-003  6.2145084e-002  6.6645291e-005 -1.0468925e-003  1.0490117e-003  1.5256504e-002  1.5256504e-002  1.5257054e-002 
 1.8721581e-002  6.2145084e-002  5.4850563e-004 -2.5688417e-003  2.6267483e-003  1.5293108e-002  1.5293108e-002  1.5296558e-002 
 3.2228529e-002  6.2145084e-002  1.3401360e-003 -3.3616372e-003  3.6189184e-003  1.5291939e-002  1.5291939e-002  1.5298488e-002 
 4.6680957e-002  6.2145084e-002  2.1695581e-003 -3.4184321e-003  4.0487852e-003  1.5257807e-002  1.5257807e-002  1.5266004e-002 
 6.2145084e-002  6.2145084e-002  2.7761545e-003 -2.7906422e-003  3.9363331e-003  1.5191576e-002  1.5191576e-002  1.5199324e-002 
 7.8691721e-002  6.2145084e-002  2.8848762e-003 -1.5763113e-003  3.2874409e-003  1.5091490e-002  1.5091490e-002  1.5096894e-002 
 9.6396603e-002  6.2145084e-002  2.1974952e-003  9.4972631e-005  2.1995464e-003  1.4957698e-002  1.4957698e-002  1.4960117e-002 
 1.1534080e-001  6.2145084e-002  3.9456101e-004  2.0930569e-003  2.1299215e-003  1.4791142e-002  1.4791142e-002  1.4793411e-002 
 1.3561110e-001  6.2145084e-002 -2.8668793e-003  4.3277503e-003  5.1911869e-003  1.4590256e-002  1.4590256e-002  1.4603730e-002 
 1.5730035e-001  6.2145084e-002 -7.9775155e-003  6.7881052e-003  1.0474689e-002  1.4348067e-002  1.4348067e-002  1.4402927e-002 
 1.8050785e-001  6.2145084e-002 -1.5414678e-002  9.5527302e-003  1.8134689e-002  1.4049714e-002  1.4049714e-002  1.4214148e-002 
 2.0533991e-001  6.2145084e-002 -2.5767779e-002  1.2744645e-002  2.8747249e-002  1.3671130e-002  1.3671130e-002  1.4084332e-002 
 2.3191020e-001  6.2145084e-002 -3.9702296e-002  1.6427070e-002  4.2966511e-002  1.3180926e-002  1.3180926e-002  1.4103987e-002 
 2.6034039e-001  6.2145084e-002 -5.7807945e-002  2.0478429e-002  6.1328009e-002  1.2544736e-002  1.2544736e-002  1.4425298e-002 
 2.9076070e-001  6.2145084e-002 -8.0324739e-002  2.4507463e-002  8.3980232e-002  1.1732078e-002  1.1732078e-002  1.5258417e-002 
 3.2331041e-001  6.2145084e-002 -1.0678408e-001  2.7767641e-002  1.1033532e-001  1.0729968e-002  1.0729968e-002  1.6816908e-002 
 3.5813856e-001  6.2145084e-002 -1.3552628e-001  2.9107580e-002  1.3861683e-001  9.5497994e-003  9.5497994e-003  1.9157112e-002 
 3.9540476e-001  6.2145084e-002 -1.6344909e-001  2.7237905e-002  1.6570307e-001  8.4285354e-003  8.4285354e-003  2.2157291e-002 