Variables = "x","y", "Velocity_x", "Velocity_y", "Velocity_whole value", "Pressure", "Absolute pressure", "Total pressure"
Zone i=42, j=42
 0.0000000e+000  0.0000000e+000  0.0000000e+000  0.0000000e+000  0.0000000e+000  7.0668268e-003  7.0668268e-003  7.0668268e-003 
 6.0982401e-003  0.0000000e+000  0.0000000e+000  0.0000000e+000  0.0000000e+000  7.0737456e-003  7.0737456e-003  7.0737456e-003 
 1.8721581e-002  0.0000000e+000  0.0000000e+000  0.0000000e+000  0.0000000e+000  7.0880675e-003  7.0880675e-003  7.0880675e-003 
 3.2228529e-002  0.0000000e+000  0.0000000e+000  0.0000000e+000  0.0000000e+000  7.0701046e-003  7.0701046e-003  7.0701046e-003 
 4.6680957e-002  0.0000000e+000  0.0000000e+000  0.0000000e+000  0.0000000e+000  7.0085237e-003  7.0085237e-003  7.0085237e-003 
 6.2145084e-002  0.0000000e+000  0.0000000e+000  0.0000000e+000  0.0000000e+000  6.9015040e-003  6.9015040e-003  6.9015040e-003 
 7.8691721e-002  0.0000000e+000  0.0000000e+000  0.0000000e+000  0.0000000e+000  6.7510232e-003  6.7510232e-003  6.7510232e-003 
 9.6396603e-002  0.0000000e+000  0.0000000e+000  0.0000000e+000  0.0000000e+000  6.5606488e-003  6.5606488e-003  6.5606488e-003 
 1.1534080e-001  0.0000000e+000  0.0000000e+000  0.0000000e+000  0.0000000e+000  6.3336436e-003  6.3336436e-003  6.3336436e-003 
 1.3561110e-001  0.0000000e+000  0.0000000e+000  0.0000000e+000  0.0000000e+000  6.0717613e-003  6.0717613e-003  6.0717613e-003 
 1.5730035e-001  0.0000000e+000  0.0000000e+000  0.0000000e+000  0.0000000e+000  5.7749511e-003  5.7749511e-003  5.7749511e-003 
 1.8050785e-001  0.0000000e+000  0.0000000e+000  0.0000000e+000  0.0000000e+000  5.4419879e-003  5.4419879e-003  5.4419879e-003 
 2.0533991e-001  0.0000000e+000  0.0000000e+000  0.0000000e+000  0.0000000e+000  5.0721401e-003  5.0721401e-003  5.0721401e-003 
 2.3191020e-001  0.0000000e+000  0.0000000e+000  0.0000000e+000  0.0000000e+000  4.6679946e-003  4.6679946e-003  4.6679946e-003 
 2.6034039e-001  0.0000000e+000  0.0000000e+000  0.0000000e+000  0.0000000e+000  4.2395643e-003  4.2395643e-003  4.2395643e-003 
 2.9076070e-001  0.0000000e+000  0.0000000e+000  0.0000000e+000  0.0000000e+000  3.8095438e-003  3.8095438e-003  3.8095438e-003 
 3.2331041e-001  0.0000000e+000  0.0000000e+000  0.0000000e+000  0.0000000e+000  3.4174921e-003  3.4174921e-003  3.4174921e-003 
 3.5813856e-001  0.0000000e+000  0.0000000e+000  0.0000000e+000  0.0000000e+000  3.1293894e-003  3.1293894e-003  3.1293894e-003 
 3.9540476e-001  0.0000000e+000  0.0000000e+000  0.0000000e+000  0.0000000e+000  3.0571604e-003  3.0571604e-003  3.0571604e-003 
 4.3527961e-001  0.0000000e+000  0.0000000e+000  0.0000000e+000  0.0000000e+000  3.3171601e-003  3.3171601e-003  3.3171601e-003 
 4.7794560e-001  0.0000000e+000  0.0000000e+000  0.0000000e+000  0.0000000e+000  4.0996275e-003  4.0996275e-003  4.0996275e-003 
 5.2205443e-001  0.0000000e+000  0.0000000e+000  0.0000000e+000  0.0000000e+000  5.3620492e-003  5.3620492e-003  5.3620492e-003 
 5.6472039e-001  0.0000000e+000  0.0000000e+000  0.0000000e+000  0.0000000e+000  6.6150874e-003  6.6150874e-003  6.6150874e-003 
 6.0459524e-001  0.0000000e+000  0.0000000e+000  0.0000000e+000  0.0000000e+000  7.6353932e-003  7.6353932e-003  7.6353932e-003 
 6.4186144e-001  0.0000000e+000  0.0000000e+000  0.0000000e+000  0.0000000e+000  8.2219923e-003  8.2219923e-003  8.2219923e-003 
 6.7668962e-001  0.0000000e+000  0.0000000e+000  0.0000000e+000  0.0000000e+000  8.3079077e-003  8.3079077e-003  8.3079077e-003 
 7.0923930e-001  0.0000000e+000  0.0000000e+000  0.0000000e+000  0.0000000e+000  7.9663852e-003  7.9663852e-003  7.9663852e-003 
 7.3965955e-001  0.0000000e+000  0.0000000e+000  0.0000000e+000  0.0000000e+000  7.2919298e-003  7.2919298e-003  7.2919298e-003 
 7.6808977e-001  0.0000000e+000  0.0000000e+000  0.0000000e+000  0.0000000e+000  6.4302459e-003  6.4302459e-003  6.4302459e-003 
 7.9466009e-001  0.0000000e+000  0.0000000e+000  0.0000000e+000  0.0000000e+000  5.5192728e-003  5.5192728e-003  5.5192728e-003 
 8.1949216e-001  0.0000000e+000  0.0000000e+000  0.0000000e+000  0.0000000e+000  4.6567074e-003  4.6567074e-003  4.6567074e-003 
 8.4269965e-001  0.0000000e+000  0.0000000e+000  0.0000000e+000  0.0000000e+000  3.8985910e-003  3.8985910e-003  3.8985910e-003 
 8.6438888e-001  0.0000000e+000  0.0000000e+000  0.0000000e+000  0.0000000e+000  3.2799724e-003  3.2799724e-003  3.2799724e-003 
 8.8465917e-001  0.0000000e+000  0.0000000e+000  0.0000000e+000  0.0000000e+000  2.7988437e-003  2.7988437e-003  2.7988437e-003 
 9.0360343e-001  0.0000000e+000  0.0000000e+000  0.0000000e+000  0.0000000e+000  2.4516345e-003  2.4516345e-003  2.4516345e-003 
 9.2130828e-001  0.0000000e+000  0.0000000e+000  0.0000000e+000  0.0000000e+000  2.2263974e-003  2.2263974e-003  2.2263974e-003 
 9.3785501e-001  0.0000000e+000  0.0000000e+000  0.0000000e+000  0.0000000e+000  2.1075781e-003  2.1075781e-003  2.1075781e-003 
 9.5331907e-001  0.0000000e+000  0.0000000e+000  0.0000000e+000  0.0000000e+000  2.0764798e-003  2.0764798e-003  2.0764798e-003 
 9.6777147e-001  0.0000000e+000  0.0000000e+000  0.0000000e+000  0.0000000e+000  2.1088277e-003  2.1088277e-003  2.1088277e-003 
 9.8127842e-001  0.0000000e+000  0.0000000e+000  0.0000000e+000  0.0000000e+000  2.1709139e-003  2.1709139e-003  2.1709139e-003 
 9.9390173e-001  0.0000000e+000  0.0000000e+000  0.0000000e+000  0.0000000e+000  2.2297623e-003  2.2297623e-003  2.2297623e-003 
 1.0000000e+000  0.0000000e+000  0.0000000e+000  0.0000000e+000  0.0000000e+000  2.2581914e-003  2.2581914e-003  2.2581914e-003 
 0.0000000e+000  6.0982401e-003  0.0000000e+000  0.0000000e+000  0.0000000e+000  7.0599546e-003  7.0599546e-003  7.0599546e-003 
 6.0982401e-003  6.0982401e-003  2.8677473e-006 -2.7946426e-006  4.0042478e-006  7.0668282e-003  7.0668282e-003  7.0668282e-003 
 1.8721581e-002  6.0982401e-003  4.8762358e-005 -1.7951283e-005  5.1961681e-005  7.0810569e-003  7.0810569e-003  7.0810583e-003 
 3.2228529e-002  6.0982401e-003  1.2970272e-004 -2.1814563e-005  1.3152442e-004  7.0628743e-003  7.0628743e-003  7.0628831e-003 
 4.6680957e-002  6.0982401e-003  2.0958342e-004 -1.9031693e-005  2.1044575e-004  7.0039714e-003  7.0039714e-003  7.0039937e-003 
 6.2145084e-002  6.0982401e-003  2.6133808e-004 -1.3437156e-005  2.6168331e-004  6.9028512e-003  6.9028512e-003  6.9028856e-003 
 7.8691721e-002  6.0982401e-003  2.6558051e-004 -7.0848660e-006  2.6567499e-004  6.7605851e-003  6.7605851e-003  6.7606205e-003 
 9.6396603e-002  6.0982401e-003  2.0805174e-004 -1.0382930e-006  2.0805433e-004  6.5797786e-003  6.5797786e-003  6.5798000e-003 
 1.1534080e-001  6.0982401e-003  7.8193196e-005  4.3071868e-006  7.8311736e-005  6.3629784e-003  6.3629784e-003  6.3629816e-003 
 1.3561110e-001  6.0982401e-003 -1.3276943e-004  8.9968134e-006  1.3307390e-004  6.1115394e-003  6.1115394e-003  6.1115483e-003 
 1.5730035e-001  6.0982401e-003 -4.3416512e-004  1.3343520e-005  4.3437013e-004  5.8253054e-003  5.8253054e-003  5.8253999e-003 
 1.8050785e-001  6.0982401e-003 -8.3806168e-004  1.7793576e-005  8.3825056e-004  5.5031311e-003  5.5031311e-003  5.5034822e-003 
 2.0533991e-001  6.0982401e-003 -1.3607607e-003  2.2795426e-005  1.3609516e-003  5.1443917e-003  5.1443917e-003  5.1453179e-003 
 2.3191020e-001  6.0982401e-003 -2.0228869e-003  2.8685621e-005  2.0230904e-003  4.7516003e-003  4.7516003e-003  4.7536469e-003 
 2.6034039e-001  6.0982401e-003 -2.8471269e-003  3.5552541e-005  2.8473488e-003  4.3343115e-003  4.3343115e-003  4.3383650e-003 
 2.9076070e-001  6.0982401e-003 -3.8522619e-003  4.3015709e-005  3.8525020e-003  3.9142431e-003  3.9142431e-003  3.9216639e-003 
 3.2331041e-001  6.0982401e-003 -5.0459648e-003  5.0771596e-005  5.0462205e-003  3.5292448e-003  3.5292448e-003  3.5419769e-003 
 3.5813856e-001  6.0982401e-003 -6.4147571e-003  5.8495854e-005  6.4150239e-003  3.2422384e-003  3.2422384e-003  3.2628146e-003 
 3.9540476e-001  6.0982401e-003 -7.8834128e-003  6.1159524e-005  7.8836503e-003  3.1612378e-003  3.1612378e-003  3.1923137e-003 
 4.3527961e-001  6.0982401e-003 -9.3067866e-003  5.9925016e-005  9.3069794e-003  3.3968268e-003  3.3968268e-003  3.4401368e-003 
 4.7794560e-001  6.0982401e-003 -1.0371638e-002  3.9418959e-005  1.0371713e-002  4.1351654e-003  4.1351654e-003  4.1889516e-003 
 5.2205443e-001  6.0982401e-003 -1.0586957e-002 -3.4853088e-006  1.0586957e-002  5.3377696e-003  5.3377696e-003  5.3938115e-003 
 5.6472039e-001  6.0982401e-003 -9.8138489e-003 -3.7107282e-005  9.8139187e-003  6.5329066e-003  6.5329066e-003  6.5810629e-003 
 6.0459524e-001  6.0982401e-003 -8.3089173e-003 -7.0804330e-005  8.3092190e-003  7.5069554e-003  7.5069554e-003  7.5414767e-003 
 6.4186144e-001  6.0982401e-003 -6.3331928e-003 -9.3318435e-005  6.3338801e-003  8.0639878e-003  8.0639878e-003  8.0840467e-003 
 6.7668962e-001  6.0982401e-003 -4.2169774e-003 -9.9284764e-005  4.2181462e-003  8.1392452e-003  8.1392452e-003  8.1481412e-003 
 7.0923930e-001  6.0982401e-003 -2.2234025e-003 -9.4852621e-005  2.2254249e-003  7.8045726e-003  7.8045726e-003  7.8070490e-003 
 7.3965955e-001  6.0982401e-003 -5.3186814e-004 -7.7360317e-005  5.3746474e-004  7.1509965e-003  7.1509965e-003  7.1511408e-003 
 7.6808977e-001  6.0982401e-003  7.4391451e-004 -5.2671603e-005  7.4577687e-004  6.3195582e-003  6.3195582e-003  6.3198362e-003 
 7.9466009e-001  6.0982401e-003  1.5862099e-003 -2.7109380e-005  1.5864415e-003  5.4427725e-003  5.4427725e-003  5.4440307e-003 
 8.1949216e-001  6.0982401e-003  2.0422619e-003 -4.3780760e-006  2.0422665e-003  4.6139932e-003  4.6139932e-003  4.6160785e-003 
 8.4269965e-001  6.0982401e-003  2.1866104e-003  1.2446257e-005  2.1866458e-003  3.8874145e-003  3.8874145e-003  3.8898052e-003 
 8.6438888e-001  6.0982401e-003  2.1005943e-003  2.8834540e-005  2.1007922e-003  3.2926875e-003  3.2926875e-003  3.2948942e-003 
 8.8465917e-001  6.0982401e-003  1.8583491e-003  3.9560335e-005  1.8587701e-003  2.8307524e-003  2.8307524e-003  2.8324800e-003 
 9.0360343e-001  6.0982401e-003  1.5223222e-003  4.6261590e-005  1.5230250e-003  2.4966816e-003  2.4966816e-003  2.4978414e-003 
 9.2130828e-001  6.0982401e-003  1.1452745e-003  4.9434380e-005  1.1463409e-003  2.2782171e-003  2.2782171e-003  2.2788742e-003 
 9.3785501e-001  6.0982401e-003  7.7141286e-004  4.8498263e-005  7.7293586e-004  2.1598814e-003  2.1598814e-003  2.1601801e-003 
 9.5331907e-001  6.0982401e-003  4.3909604e-004  4.1996322e-005  4.4109978e-004  2.1234585e-003  2.1234585e-003  2.1235559e-003 
 9.6777147e-001  6.0982401e-003  1.8133575e-004  2.7460386e-005  1.8340319e-004  2.1462226e-003  2.1462226e-003  2.1462394e-003 
 9.8127842e-001  6.0982401e-003  2.2533513e-005  2.6416128e-006  2.2687824e-005  2.1993080e-003  2.1993080e-003  2.1993082e-003 
 9.9390173e-001  6.0982401e-003 -2.2505585e-005 -2.2495842e-005  3.1820815e-005  2.2581888e-003  2.2581888e-003  2.2581893e-003 
 1.0000000e+000  6.0982401e-003  0.0000000e+000  0.0000000e+000  0.0000000e+000  2.2866337e-003  2.2866337e-003  2.2866337e-003 
 0.0000000e+000  1.8721581e-002  0.0000000e+000  0.0000000e+000  0.0000000e+000  7.0457291e-003  7.0457291e-003  7.0457291e-003 
 6.0982401e-003  1.8721581e-002  1.8475725e-005 -4.8972783e-005  5.2342009e-005  7.0525096e-003  7.0525096e-003  7.0525110e-003 
 1.8721581e-002  1.8721581e-002  1.2185353e-004 -1.2102602e-004  1.7174277e-004  7.0665455e-003  7.0665455e-003  7.0665604e-003 
 3.2228529e-002  1.8721581e-002  2.7703130e-004 -1.3511915e-004  3.0822642e-004  7.0479074e-003  7.0479074e-003  7.0479549e-003 
 4.6680957e-002  1.8721581e-002  4.1420292e-004 -1.0248284e-004  4.2669286e-004  6.9945478e-003  6.9945478e-003  6.9946386e-003 
 6.2145084e-002  1.8721581e-002  4.7257249e-004 -3.9395683e-005  4.7421173e-004  6.9056391e-003  6.9056391e-003  6.9057513e-003 
 7.8691721e-002  1.8721581e-002  4.0111525e-004  4.0461906e-005  4.0315086e-004  6.7803776e-003  6.7803776e-003  6.7804591e-003 
 9.6396603e-002  1.8721581e-002  1.5721851e-004  1.2727098e-004  2.0227596e-004  6.6193775e-003  6.6193775e-003  6.6193980e-003 
 1.1534080e-001  1.8721581e-002 -2.9426557e-004  2.1521044e-004  3.6456517e-004  6.4237020e-003  6.4237020e-003  6.4237686e-003 
 1.3561110e-001  1.8721581e-002 -9.8438945e-004  3.0210632e-004  1.0297042e-003  6.1938809e-003  6.1938809e-003  6.1944108e-003 
 1.5730035e-001  1.8721581e-002 -1.9451587e-003  3.8864114e-004  1.9836039e-003  5.9295390e-003  5.9295390e-003  5.9315064e-003 
 1.8050785e-001  1.8721581e-002 -3.2146380e-003  4.7714353e-004  3.2498559e-003  5.6296973e-003  5.6296973e-003  5.6349779e-003 
 2.0533991e-001  1.8721581e-002 -4.8403279e-003  5.7002698e-004  4.8737773e-003  5.2939528e-003  5.2939528e-003  5.3058295e-003 
 2.3191020e-001  1.8721581e-002 -6.8786088e-003  6.6802313e-004  6.9109704e-003  4.9246647e-003  4.9246647e-003  4.9485457e-003 
 2.6034039e-001  1.8721581e-002 -9.3874764e-003  7.6823565e-004  9.4188582e-003  4.5304382e-003  4.5304382e-003  4.5747957e-003 
 2.9076070e-001  1.8721581e-002 -1.2409357e-002  8.6258462e-004  1.2439300e-002  4.1309707e-003  4.1309707e-003  4.2083389e-003 
 3.2331041e-001  1.8721581e-002 -1.5948262e-002  9.3858893e-004  1.5975857e-002  3.7605725e-003  3.7605725e-003  3.8881865e-003 
 3.5813856e-001  1.8721581e-002 -1.9934276e-002  9.7398006e-004  1.9958057e-002  3.4758358e-003  3.4758358e-003  3.6749977e-003 
 3.9540476e-001  1.8721581e-002 -2.4123849e-002  9.2496880e-004  2.4141576e-002  3.3766776e-003  3.3766776e-003  3.6680854e-003 
 4.3527961e-001  1.8721581e-002 -2.8059788e-002  7.5456174e-004  2.8069932e-002  3.5617368e-003  3.5617368e-003  3.9556972e-003 
 4.7794560e-001  1.8721581e-002 -3.0858342e-002  3.7864689e-004  3.0860664e-002  4.2087291e-003  4.2087291e-003  4.6849195e-003 
 5.2205443e-001  1.8721581e-002 -3.1278692e-002 -1.6940825e-004  3.1279150e-002  5.2875117e-003  5.2875117e-003  5.7767043e-003 
 5.6472039e-001  1.8721581e-002 -2.8962394e-002 -6.8396173e-004  2.8970469e-002  6.3627930e-003  6.3627930e-003  6.7824372e-003 
 6.0459524e-001  1.8721581e-002 -2.4637934e-002 -1.1194274e-003  2.4663351e-002  7.2410908e-003  7.2410908e-003  7.5452314e-003 
 6.4186144e-001  1.8721581e-002 -1.9068373e-002 -1.4035832e-003  1.9119961e-002  7.7369194e-003  7.7369194e-003  7.9197055e-003 
 6.7668962e-001  1.8721581e-002 -1.3135244e-002 -1.4997870e-003  1.3220590e-002  7.7901129e-003  7.7901129e-003  7.8775045e-003 
 7.0923930e-001  1.8721581e-002 -7.5428598e-003 -1.4392248e-003  7.6789390e-003  7.4696210e-003  7.4696210e-003  7.4991039e-003 
 7.3965955e-001  1.8721581e-002 -2.7690008e-003 -1.2359483e-003  3.0323148e-003  6.8592657e-003  6.8592657e-003  6.8638632e-003 
 7.6808977e-001  1.8721581e-002  8.9225231e-004 -9.4153843e-004  1.2971541e-003  6.0904338e-003  6.0904338e-003  6.0912753e-003 
 7.9466009e-001  1.8721581e-002  3.3855836e-003 -6.1674585e-004  3.4413009e-003  5.2844170e-003  5.2844170e-003  5.2903383e-003 
 8.1949216e-001  1.8721581e-002  4.8234132e-003 -3.0522360e-004  4.8330608e-003  4.5255758e-003  4.5255758e-003  4.5372550e-003 
 8.4269965e-001  1.8721581e-002  5.3983643e-003 -3.4025914e-005  5.3984714e-003  3.8642795e-003  3.8642795e-003  3.8788512e-003 
 8.6438888e-001  1.8721581e-002  5.3231791e-003  1.9035596e-004  5.3265817e-003  3.3190078e-003  3.3190078e-003  3.3331939e-003 
 8.8465917e-001  1.8721581e-002  4.7981138e-003  3.5921013e-004  4.8115412e-003  2.8968037e-003  2.8968037e-003  2.9083791e-003 
 9.0360343e-001  1.8721581e-002  3.9985040e-003  4.7285057e-004  4.0263659e-003  2.5899289e-003  2.5899289e-003  2.5980347e-003 
 9.2130828e-001  1.8721581e-002  3.0719058e-003  5.3155114e-004  3.1175555e-003  2.3854838e-003  2.3854838e-003  2.3903435e-003 
 9.3785501e-001  1.8721581e-002  2.1404966e-003  5.3370284e-004  2.2060291e-003  2.2681493e-003  2.2681493e-003  2.2705826e-003 
 9.5331907e-001  1.8721581e-002  1.3040204e-003  4.7685986e-004  1.3884756e-003  2.2207045e-003  2.2207045e-003  2.2216684e-003 
 9.6777147e-001  1.8721581e-002  6.3847285e-004  3.6036572e-004  7.3315145e-004  2.2236304e-003  2.2236304e-003  2.2238991e-003 
 9.8127842e-001  1.8721581e-002  1.9378621e-004  1.9353069e-004  2.7387447e-004  2.2580838e-003  2.2580838e-003  2.2581213e-003 
 9.9390173e-001  1.8721581e-002  2.6262237e-006  2.2524859e-005  2.2677441e-005  2.3170318e-003  2.3170318e-003  2.3170321e-003 
 1.0000000e+000  1.8721581e-002  0.0000000e+000  0.0000000e+000  0.0000000e+000  2.3455091e-003  2.3455091e-003  2.3455091e-003 
 0.0000000e+000  3.2228529e-002  0.0000000e+000  0.0000000e+000  0.0000000e+000  7.0646070e-003  7.0646070e-003  7.0646070e-003 
 6.0982401e-003  3.2228529e-002  2.3178525e-005 -1.3137625e-004  1.3340525e-004  7.0710457e-003  7.0710457e-003  7.0710545e-003 
 1.8721581e-002  3.2228529e-002  1.3638416e-004 -2.7696998e-004  3.0872805e-004  7.0843734e-003  7.0843734e-003  7.0844209e-003 
 3.2228529e-002  3.2228529e-002  2.8293088e-004 -2.8499812e-004  4.0158912e-004  7.0648259e-003  7.0648259e-003  7.0649064e-003 
 4.6680957e-002  3.2228529e-002  3.7202201e-004 -1.8070902e-004  4.1358933e-004  7.0132497e-003  7.0132497e-003  7.0133354e-003 
 6.2145084e-002  3.2228529e-002  3.2175169e-004  3.6114975e-006  3.2177195e-004  6.9300947e-003  6.9300947e-003  6.9301464e-003 
 7.8691721e-002  3.2228529e-002  5.8548419e-005  2.3728481e-004  2.4440131e-004  6.8143746e-003  6.8143746e-003  6.8144044e-003 
 9.6396603e-002  3.2228529e-002 -4.8377161e-004  4.9600418e-004  6.9286011e-004  6.6659465e-003  6.6659465e-003  6.6661863e-003 
 1.1534080e-001  3.2228529e-002 -1.3642735e-003  7.6391810e-004  1.5635898e-003  6.4850114e-003  6.4850114e-003  6.4862338e-003 
 1.3561110e-001  3.2228529e-002 -2.6383714e-003  1.0339080e-003  2.8337201e-003  6.2713521e-003  6.2713521e-003  6.2753670e-003 
 1.5730035e-001  3.2228529e-002 -4.3637073e-003  1.3061666e-003  4.5549986e-003  6.0240543e-003  6.0240543e-003  6.0344283e-003 
 1.8050785e-001  3.2228529e-002 -6.6062342e-003  1.5851929e-003  6.7937593e-003  5.7417685e-003  5.7417685e-003  5.7648462e-003 
 2.0533991e-001  3.2228529e-002 -9.4436193e-003  1.8754300e-003  9.6280416e-003  5.4237237e-003  5.4237237e-003  5.4700733e-003 
 2.3191020e-001  3.2228529e-002 -1.2962348e-002  2.1760478e-003  1.3143730e-002  5.0716395e-003  5.0716395e-003  5.1580183e-003 
 2.6034039e-001  3.2228529e-002 -1.7244091e-002  2.4752517e-003  1.7420838e-002  4.6929377e-003  4.6929377e-003  4.8446804e-003 
 2.9076070e-001  3.2228529e-002 -2.2336707e-002  2.7460344e-003  2.2504870e-002  4.3053878e-003  4.3053878e-003  4.5586224e-003 
 3.2331041e-001  3.2228529e-002 -2.8215421e-002  2.9456990e-003  2.8368771e-002  3.9398647e-003  3.9398647e-003  4.3422584e-003 
 3.5813856e-001  3.2228529e-002 -3.4718215e-002  3.0006261e-003  3.4847643e-002  3.6475435e-003  3.6475435e-003  4.2547225e-003 
 3.9540476e-001  3.2228529e-002 -4.1406006e-002  2.7890864e-003  4.1499835e-002  3.5238534e-003  3.5238534e-003  4.3849717e-003 
 4.3527961e-001  3.2228529e-002 -4.7494181e-002  2.1903371e-003  4.7544662e-002  3.6596362e-003  3.6596362e-003  4.7898837e-003 
 4.7794560e-001  3.2228529e-002 -5.1595610e-002  1.0209910e-003  5.1605709e-002  4.2354735e-003  4.2354735e-003  5.5670482e-003 
 5.2205443e-001  3.2228529e-002 -5.1974032e-002 -5.9555518e-004  5.1977444e-002  5.2272645e-003  5.2272645e-003  6.5780920e-003 
 5.6472039e-001  3.2228529e-002 -4.8095811e-002 -2.1372174e-003  4.8143271e-002  6.2202169e-003  6.2202169e-003  7.3791044e-003 
 6.0459524e-001  3.2228529e-002 -4.1155297e-002 -3.4076325e-003  4.1296132e-002  7.0371414e-003  7.0371414e-003  7.8898268e-003 
 6.4186144e-001  3.2228529e-002 -3.2364376e-002 -4.2306865e-003  3.2639723e-002  7.4963248e-003  7.4963248e-003  8.0290008e-003 
 6.7668962e-001  3.2228529e-002 -2.3038566e-002 -4.5187632e-003  2.3477538e-002  7.5369193e-003  7.5369193e-003  7.8125168e-003 
 7.0923930e-001  3.2228529e-002 -1.4229243e-002 -4.3473472e-003  1.4878534e-002  7.2263768e-003  7.2263768e-003  7.3370622e-003 
 7.3965955e-001  3.2228529e-002 -6.6451654e-003 -3.7735545e-003  7.6418542e-003  6.6426899e-003  6.6426899e-003  6.6718888e-003 
 7.6808977e-001  3.2228529e-002 -7.2383101e-004 -2.9354347e-003  3.0233604e-003  5.9116124e-003  5.9116124e-003  5.9161829e-003 
 7.9466009e-001  3.2228529e-002  3.4347407e-003 -1.9975819e-003  3.9733835e-003  5.1492248e-003  5.1492248e-003  5.1571187e-003 
 8.1949216e-001  3.2228529e-002  5.9761675e-003 -1.0844097e-003  6.0737571e-003  4.4345111e-003  4.4345111e-003  4.4529564e-003 
 8.4269965e-001  3.2228529e-002  7.1738069e-003 -2.7370569e-004  7.1790265e-003  3.8131559e-003  3.8131559e-003  3.8389252e-003 
 8.6438888e-001  3.2228529e-002  7.3397700e-003  3.9525997e-004  7.3504052e-003  3.3034524e-003  3.3034524e-003  3.3304666e-003 
 8.8465917e-001  3.2228529e-002  6.7794216e-003  9.0695557e-004  6.8398193e-003  2.9082480e-003  2.9082480e-003  2.9316396e-003 
 9.0360343e-001  3.2228529e-002  5.7597975e-003  1.2568033e-003  5.8953222e-003  2.6199266e-003  2.6199266e-003  2.6373039e-003 
 9.2130828e-001  3.2228529e-002  4.5095137e-003  1.4443349e-003  4.7351681e-003  2.4255498e-003  2.4255498e-003  2.4367606e-003 
 9.3785501e-001  3.2228529e-002  3.2158298e-003  1.4694292e-003  3.5356448e-003  2.3107268e-003  2.3107268e-003  2.3169771e-003 
 9.5331907e-001  3.2228529e-002  2.0268215e-003  1.3340643e-003  2.4264650e-003  2.2601476e-003  2.2601476e-003  2.2630915e-003 
 9.6777147e-001  3.2228529e-002  1.0508215e-003  1.0474549e-003  1.4837073e-003  2.2576335e-003  2.2576335e-003  2.2587341e-003 
 9.8127842e-001  3.2228529e-002  3.6206486e-004  6.3870318e-004  7.3418848e-004  2.2923001e-003  2.2923001e-003  2.2925697e-003 
 9.9390173e-001  3.2228529e-002  2.7588389e-005  1.8175851e-004  1.8384036e-004  2.3701785e-003  2.3701785e-003  2.3701955e-003 
 1.0000000e+000  3.2228529e-002  0.0000000e+000  0.0000000e+000  0.0000000e+000  2.4078011e-003  2.4078011e-003  2.4078011e-003 
 0.0000000e+000  4.6680957e-002  0.0000000e+000  0.0000000e+000  0.0000000e+000  7.1301237e-003  7.1301237e-003  7.1301237e-003 
 6.0982401e-003  4.6680957e-002  2.0926856e-005 -2.1253737e-004  2.1356513e-004  7.1325735e-003  7.1325735e-003  7.1325963e-003 
 1.8721581e-002  4.6680957e-002  9.7996977e-005 -4.1033147e-004  4.2187123e-004  7.1376446e-003  7.1376446e-003  7.1377335e-003 
 3.2228529e-002  4.6680957e-002  1.5698373e-004 -3.7059301e-004  4.0247120e-004  7.1134167e-003  7.1134167e-003  7.1134977e-003 
 4.6680957e-002  4.6680957e-002  9.6987023e-005 -1.3853711e-004  1.6911243e-004  7.0601529e-003  7.0601529e-003  7.0601674e-003 
 6.2145084e-002  4.6680957e-002 -1.7731504e-004  2.3532702e-004  2.9465137e-004  6.9788564e-003  6.9788564e-003  6.9788997e-003 
 7.8691721e-002  4.6680957e-002 -7.5501739e-004  7.0173695e-004  1.0307697e-003  6.8687964e-003  6.8687964e-003  6.8693277e-003 
 9.6396603e-002  4.6680957e-002 -1.7203604e-003  1.2201350e-003  2.1091157e-003  6.7294720e-003  6.7294720e-003  6.7316960e-003 
 1.1534080e-001  4.6680957e-002 -3.1533197e-003  1.7628674e-003  3.6126343e-003  6.5604104e-003  6.5604104e-003  6.5669362e-003 
 1.3561110e-001  4.6680957e-002 -5.1330249e-003  2.3164591e-003  5.6315120e-003  6.3605965e-003  6.3605965e-003  6.3764537e-003 
 1.5730035e-001  4.6680957e-002 -7.7434587e-003  2.8796357e-003  8.2615651e-003  6.1282874e-003  6.1282874e-003  6.1624143e-003 
 1.8050785e-001  4.6680957e-002 -1.1078865e-002  3.4580382e-003  1.1606002e-002  5.8612959e-003  5.8612959e-003  5.9286454e-003 
 2.0533991e-001  4.6680957e-002 -1.5245194e-002  4.0560383e-003  1.5775532e-002  5.5579026e-003  5.5579026e-003  5.6823362e-003 
 2.3191020e-001  4.6680957e-002 -2.0352853e-002  4.6665915e-003  2.0880990e-002  5.2185827e-003  5.2185827e-003  5.4365904e-003 
 2.6034039e-001  4.6680957e-002 -2.6494890e-002  5.2602077e-003  2.7012017e-002  4.8490921e-003  4.8490921e-003  5.2139168e-003 
 2.9076070e-001  4.6680957e-002 -3.3705231e-002  5.7769832e-003  3.4196727e-002  4.4649541e-003  4.4649541e-003  5.0496622e-003 
 3.2331041e-001  4.6680957e-002 -4.1906051e-002  6.1227097e-003  4.2350970e-002  4.0927064e-003  4.0927064e-003  4.9895085e-003 
 3.5813856e-001  4.6680957e-002 -5.0810169e-002  6.1448221e-003  5.1180389e-002  3.7791433e-003  3.7791433e-003  5.0888592e-003 
 3.9540476e-001  4.6680957e-002 -5.9762765e-002  5.6064231e-003  6.0025163e-002  3.6174611e-003  3.6174611e-003  5.4189712e-003 
 4.3527961e-001  4.6680957e-002 -6.7658991e-002  4.2762156e-003  6.7793988e-002  3.6944207e-003  3.6944207e-003  5.9924331e-003 
 4.7794560e-001  4.6680957e-002 -7.2691619e-002  1.8752953e-003  7.2715804e-002  4.2044432e-003  4.2044432e-003  6.8482375e-003 
 5.2205443e-001  4.6680957e-002 -7.2856717e-002 -1.3395987e-003  7.2869033e-002  5.1292712e-003  5.1292712e-003  7.7842190e-003 
 5.6472039e-001  4.6680957e-002 -6.7452416e-002 -4.4107833e-003  6.7596473e-002  6.0621239e-003  6.0621239e-003  8.3467653e-003 
 6.0459524e-001  4.6680957e-002 -5.8144040e-002 -6.9011641e-003  5.8552161e-002  6.8406002e-003  6.8406002e-003  8.5547781e-003 
 6.4186144e-001  4.6680957e-002 -4.6509102e-002 -8.5096713e-003  4.7281191e-002  7.2810538e-003  7.2810538e-003  8.3988095e-003 
 6.7668962e-001  4.6680957e-002 -3.4188300e-002 -9.0879537e-003  3.5375569e-002  7.3171486e-003  7.3171486e-003  7.9428637e-003 
 7.0923930e-001  4.6680957e-002 -2.2498025e-002 -8.7745031e-003  2.4148561e-002  7.0154020e-003  7.0154020e-003  7.3069786e-003 
 7.3965955e-001  4.6680957e-002 -1.2323315e-002 -7.6892795e-003  1.4525465e-002  6.4493180e-003  6.4493180e-003  6.5548127e-003 
 7.6808977e-001  4.6680957e-002 -4.2230831e-003 -6.0854782e-003  7.4072583e-003  5.7409462e-003  5.7409462e-003  5.7683801e-003 
 7.9466009e-001  4.6680957e-002  1.6453800e-003 -4.2689811e-003  4.5750928e-003  5.0057159e-003  5.0057159e-003  5.0161816e-003 
 8.1949216e-001  4.6680957e-002  5.4316265e-003 -2.4792466e-003  5.9706974e-003  4.3204022e-003  4.3204022e-003  4.3382267e-003 
 8.4269965e-001  4.6680957e-002  7.4550970e-003 -8.7222195e-004  7.5059473e-003  3.7278824e-003  3.7278824e-003  3.7560521e-003 
 8.6438888e-001  4.6680957e-002  8.0997758e-003  4.6709800e-004  8.1132324e-003  3.2446051e-003  3.2446051e-003  3.2775174e-003 
 8.8465917e-001  4.6680957e-002  7.7504250e-003  1.5026765e-003  7.8947525e-003  2.8708759e-003  2.8708759e-003  2.9020393e-003 
 9.0360343e-001  4.6680957e-002  6.7497906e-003  2.2226716e-003  7.1063312e-003  2.5982552e-003  2.5982552e-003  2.6235052e-003 
 9.2130828e-001  4.6680957e-002  5.3930935e-003  2.6261858e-003  5.9985258e-003  2.4137439e-003  2.4137439e-003  2.4317349e-003 
 9.3785501e-001  4.6680957e-002  3.9221873e-003  2.7182621e-003  4.7720545e-003  2.3037475e-003  2.3037475e-003  2.3151338e-003 
 9.5331907e-001  4.6680957e-002  2.5264879e-003  2.5104950e-003  3.5617028e-003  2.2546900e-003  2.2546900e-003  2.2610328e-003 
 9.6777147e-001  4.6680957e-002  1.3449863e-003  2.0251900e-003  2.4311279e-003  2.2531375e-003  2.2531375e-003  2.2560926e-003 
 9.8127842e-001  4.6680957e-002  4.8101015e-004  1.3076422e-003  1.3933050e-003  2.2942442e-003  2.2942442e-003  2.2952149e-003 
 9.9390173e-001  4.6680957e-002  4.2220399e-005  4.4119827e-004  4.4321379e-004  2.3926494e-003  2.3926494e-003  2.3927477e-003 
 1.0000000e+000  4.6680957e-002  0.0000000e+000  0.0000000e+000  0.0000000e+000  2.4401883e-003  2.4401883e-003  2.4401883e-003 
 0.0000000e+000  6.2145084e-002  0.0000000e+000  0.0000000e+000  0.0000000e+000  7.2468119e-003  7.2468119e-003  7.2468119e-003 
 6.0982401e-003  6.2145084e-002  1.4560763e-005 -2.5951854e-004  2.5992669e-004  7.2409143e-003  7.2409143e-003  7.2409483e-003 
 1.8721581e-002  6.2145084e-002  1.5694581e-005 -4.4286437e-004  4.4314237e-004  7.2287060e-003  7.2287060e-003  7.2288043e-003 
 3.2228529e-002  6.2145084e-002 -8.7634580e-005 -2.8269086e-004  2.9596273e-004  7.1941684e-003  7.1941684e-003  7.1942122e-003 
 4.6680957e-002  6.2145084e-002 -3.9604728e-004  1.5527269e-004  4.2539753e-004  7.1350764e-003  7.1350764e-003  7.1351668e-003 
 6.2145084e-002  6.2145084e-002 -1.0112158e-003  8.0146844e-004  1.2903136e-003  7.0519848e-003  7.0519848e-003  7.0528174e-003 
 7.8691721e-002  6.2145084e-002 -2.0317344e-003  1.5882980e-003  2.5788825e-003  6.9444505e-003  6.9444505e-003  6.9477758e-003 
 9.6396603e-002  6.2145084e-002 -3.5542529e-003  2.4595014e-003  4.3222518e-003  6.8116398e-003  6.8116398e-003  6.8209805e-003 
 1.1534080e-001  6.2145084e-002 -5.6753899e-003  3.3761295e-003  6.6036582e-003  6.6523161e-003  6.6523161e-003  6.6741202e-003 
 1.3561110e-001  6.2145084e-002 -8.4955068e-003  4.3185311e-003  9.5301280e-003  6.4644758e-003  6.4644758e-003  6.5098875e-003 
 1.5730035e-001  6.2145084e-002 -1.2123697e-002  5.2834312e-003  1.3224926e-002  6.2452219e-003  6.2452219e-003  6.3326713e-003 
 1.8050785e-001  6.2145084e-002 -1.6681185e-002  6.2757367e-003  1.7822649e-002  5.9910631e-003  5.9910631e-003  6.1498866e-003 
 2.0533991e-001  6.2145084e-002 -2.2298932e-002  7.2955405e-003  2.3462038e-002  5.6987470e-003  5.6987470e-003  5.9739808e-003 
 2.3191020e-001  6.2145084e-002 -2.9103942e-002  8.3218394e-003  3.0270323e-002  5.3668525e-003  5.3668525e-003  5.8249990e-003 
 2.6034039e-001  6.2145084e-002 -3.7187271e-002  9.2950044e-003  3.8331322e-002  4.9989074e-003  4.9989074e-003  5.7335524e-003 
 2.9076070e-001  6.2145084e-002 -4.6549071e-002  1.0104857e-002  4.7633223e-002  4.6076099e-003  4.6076099e-003  5.7420721e-003 
 3.2331041e-001  6.2145084e-002 -5.7036746e-002  1.0582171e-002  5.8010109e-002  4.2134565e-003  4.2134565e-003  5.8960430e-003 
 3.5813856e-001  6.2145084e-002 -6.8212122e-002  1.0466062e-002  6.9010377e-002  3.8619484e-003  3.8619484e-003  6.2431642e-003 
 3.9540476e-001  6.2145084e-002 -7.9196423e-002  9.3763359e-003  7.9749539e-002  3.6443120e-003  3.6443120e-003  6.8243067e-003 