Variables = "x","y", "Velocity_x", "Velocity_y", "Velocity_whole value", "Pressure", "Absolute pressure", "Total pressure"
Zone i=42, j=42
 0.0000000e+000  0.0000000e+000  0.0000000e+000  0.0000000e+000  0.0000000e+000 -1.3714573e-002 -1.3714573e-002 -1.3714573e-002 
 6.0982401e-003  0.0000000e+000  0.0000000e+000  0.0000000e+000  0.0000000e+000 -1.3713066e-002 -1.3713066e-002 -1.3713066e-002 
 1.8721581e-002  0.0000000e+000  0.0000000e+000  0.0000000e+000  0.0000000e+000 -1.3709944e-002 -1.3709944e-002 -1.3709944e-002 
 3.2228529e-002  0.0000000e+000  0.0000000e+000  0.0000000e+000  0.0000000e+000 -1.3783675e-002 -1.3783675e-002 -1.3783675e-002 
 4.6680957e-002  0.0000000e+000  0.0000000e+000  0.0000000e+000  0.0000000e+000 -1.3941053e-002 -1.3941053e-002 -1.3941053e-002 
 6.2145084e-002  0.0000000e+000  0.0000000e+000  0.0000000e+000  0.0000000e+000 -1.4184131e-002 -1.4184131e-002 -1.4184131e-002 
 7.8691721e-002  0.0000000e+000  0.0000000e+000  0.0000000e+000  0.0000000e+000 -1.4483942e-002 -1.4483942e-002 -1.4483942e-002 
 9.6396603e-002  0.0000000e+000  0.0000000e+000  0.0000000e+000  0.0000000e+000 -1.4824284e-002 -1.4824284e-002 -1.4824284e-002 
 1.1534080e-001  0.0000000e+000  0.0000000e+000  0.0000000e+000  0.0000000e+000 -1.5184482e-002 -1.5184482e-002 -1.5184482e-002 
 1.3561110e-001  0.0000000e+000  0.0000000e+000  0.0000000e+000  0.0000000e+000 -1.5542044e-002 -1.5542044e-002 -1.5542044e-002 
 1.5730035e-001  0.0000000e+000  0.0000000e+000  0.0000000e+000  0.0000000e+000 -1.5873997e-002 -1.5873997e-002 -1.5873997e-002 
 1.8050785e-001  0.0000000e+000  0.0000000e+000  0.0000000e+000  0.0000000e+000 -1.6157169e-002 -1.6157169e-002 -1.6157169e-002 
 2.0533991e-001  0.0000000e+000  0.0000000e+000  0.0000000e+000  0.0000000e+000 -1.6368149e-002 -1.6368149e-002 -1.6368149e-002 
 2.3191020e-001  0.0000000e+000  0.0000000e+000  0.0000000e+000  0.0000000e+000 -1.6482836e-002 -1.6482836e-002 -1.6482836e-002 
 2.6034039e-001  0.0000000e+000  0.0000000e+000  0.0000000e+000  0.0000000e+000 -1.6475847e-002 -1.6475847e-002 -1.6475847e-002 
 2.9076070e-001  0.0000000e+000  0.0000000e+000  0.0000000e+000  0.0000000e+000 -1.6318580e-002 -1.6318580e-002 -1.6318580e-002 
 3.2331041e-001  0.0000000e+000  0.0000000e+000  0.0000000e+000  0.0000000e+000 -1.5976792e-002 -1.5976792e-002 -1.5976792e-002 
 3.5813856e-001  0.0000000e+000  0.0000000e+000  0.0000000e+000  0.0000000e+000 -1.5411878e-002 -1.5411878e-002 -1.5411878e-002 
 3.9540476e-001  0.0000000e+000  0.0000000e+000  0.0000000e+000  0.0000000e+000 -1.4581263e-002 -1.4581263e-002 -1.4581263e-002 
 4.3527961e-001  0.0000000e+000  0.0000000e+000  0.0000000e+000  0.0000000e+000 -1.3448072e-002 -1.3448072e-002 -1.3448072e-002 
 4.7794560e-001  0.0000000e+000  0.0000000e+000  0.0000000e+000  0.0000000e+000 -1.1983869e-002 -1.1983869e-002 -1.1983869e-002 
 5.2205443e-001  0.0000000e+000  0.0000000e+000  0.0000000e+000  0.0000000e+000 -1.0248333e-002 -1.0248333e-002 -1.0248333e-002 
 5.6472039e-001  0.0000000e+000  0.0000000e+000  0.0000000e+000  0.0000000e+000 -8.5712429e-003 -8.5712429e-003 -8.5712429e-003 
 6.0459524e-001  0.0000000e+000  0.0000000e+000  0.0000000e+000  0.0000000e+000 -7.1477410e-003 -7.1477410e-003 -7.1477410e-003 
 6.4186144e-001  0.0000000e+000  0.0000000e+000  0.0000000e+000  0.0000000e+000 -6.0506612e-003 -6.0506612e-003 -6.0506612e-003 
 6.7668962e-001  0.0000000e+000  0.0000000e+000  0.0000000e+000  0.0000000e+000 -5.3183138e-003 -5.3183138e-003 -5.3183138e-003 
 7.0923930e-001  0.0000000e+000  0.0000000e+000  0.0000000e+000  0.0000000e+000 -4.9395580e-003 -4.9395580e-003 -4.9395580e-003 
 7.3965955e-001  0.0000000e+000  0.0000000e+000  0.0000000e+000  0.0000000e+000 -4.8700320e-003 -4.8700320e-003 -4.8700320e-003 
 7.6808977e-001  0.0000000e+000  0.0000000e+000  0.0000000e+000  0.0000000e+000 -5.0490350e-003 -5.0490350e-003 -5.0490350e-003 
 7.9466009e-001  0.0000000e+000  0.0000000e+000  0.0000000e+000  0.0000000e+000 -5.4095136e-003 -5.4095136e-003 -5.4095136e-003 
 8.1949216e-001  0.0000000e+000  0.0000000e+000  0.0000000e+000  0.0000000e+000 -5.8848639e-003 -5.8848639e-003 -5.8848639e-003 
 8.4269965e-001  0.0000000e+000  0.0000000e+000  0.0000000e+000  0.0000000e+000 -6.4160260e-003 -6.4160260e-003 -6.4160260e-003 
 8.6438888e-001  0.0000000e+000  0.0000000e+000  0.0000000e+000  0.0000000e+000 -6.9533936e-003 -6.9533936e-003 -6.9533936e-003 
 8.8465917e-001  0.0000000e+000  0.0000000e+000  0.0000000e+000  0.0000000e+000 -7.4637635e-003 -7.4637635e-003 -7.4637635e-003 
 9.0360343e-001  0.0000000e+000  0.0000000e+000  0.0000000e+000  0.0000000e+000 -7.9122782e-003 -7.9122782e-003 -7.9122782e-003 
 9.2130828e-001  0.0000000e+000  0.0000000e+000  0.0000000e+000  0.0000000e+000 -8.2870703e-003 -8.2870703e-003 -8.2870703e-003 
 9.3785501e-001  0.0000000e+000  0.0000000e+000  0.0000000e+000  0.0000000e+000 -8.5652648e-003 -8.5652648e-003 -8.5652648e-003 
 9.5331907e-001  0.0000000e+000  0.0000000e+000  0.0000000e+000  0.0000000e+000 -8.7519009e-003 -8.7519009e-003 -8.7519009e-003 
 9.6777147e-001  0.0000000e+000  0.0000000e+000  0.0000000e+000  0.0000000e+000 -8.8475542e-003 -8.8475542e-003 -8.8475542e-003 
 9.8127842e-001  0.0000000e+000  0.0000000e+000  0.0000000e+000  0.0000000e+000 -8.8642500e-003 -8.8642500e-003 -8.8642500e-003 
 9.9390173e-001  0.0000000e+000  0.0000000e+000  0.0000000e+000  0.0000000e+000 -8.8297129e-003 -8.8297129e-003 -8.8297129e-003 
 1.0000000e+000  0.0000000e+000  0.0000000e+000  0.0000000e+000  0.0000000e+000 -8.8130282e-003 -8.8130282e-003 -8.8130282e-003 
 0.0000000e+000  6.0982401e-003  0.0000000e+000  0.0000000e+000  0.0000000e+000 -1.3716081e-002 -1.3716081e-002 -1.3716081e-002 
 6.0982401e-003  6.0982401e-003  4.4560852e-006 -4.4467074e-006  6.2952286e-006 -1.3714578e-002 -1.3714578e-002 -1.3714578e-002 
 1.8721581e-002  6.0982401e-003  2.5171346e-005 -1.0035275e-005  2.7098034e-005 -1.3711466e-002 -1.3711466e-002 -1.3711466e-002 
 3.2228529e-002  6.0982401e-003  5.1672720e-005 -9.0768199e-006  5.2463878e-005 -1.3780757e-002 -1.3780757e-002 -1.3780756e-002 
 4.6680957e-002  6.0982401e-003  6.4802836e-005 -5.0479007e-006  6.4999149e-005 -1.3927834e-002 -1.3927834e-002 -1.3927832e-002 
 6.2145084e-002  6.0982401e-003  5.0518931e-005 -1.4885329e-006  5.0540857e-005 -1.4150196e-002 -1.4150196e-002 -1.4150195e-002 
 7.8691721e-002  6.0982401e-003 -9.7264638e-007  2.6332664e-006  2.8071574e-006 -1.4427288e-002 -1.4427288e-002 -1.4427288e-002 
 9.6396603e-002  6.0982401e-003 -9.6292788e-005  6.6227690e-006  9.6520271e-005 -1.4743731e-002 -1.4743731e-002 -1.4743727e-002 
 1.1534080e-001  6.0982401e-003 -2.4033066e-004  1.0157649e-005  2.4054523e-004 -1.5080390e-002 -1.5080390e-002 -1.5080362e-002 
 1.3561110e-001  6.0982401e-003 -4.3596511e-004  1.3149272e-005  4.3616336e-004 -1.5416209e-002 -1.5416209e-002 -1.5416114e-002 
 1.5730035e-001  6.0982401e-003 -6.8415893e-004  1.5569427e-005  6.8433606e-004 -1.5729263e-002 -1.5729263e-002 -1.5729029e-002 
 1.8050785e-001  6.0982401e-003 -9.8405243e-004  1.7422275e-005  9.8420668e-004 -1.5997130e-002 -1.5997130e-002 -1.5996646e-002 
 2.0533991e-001  6.0982401e-003 -1.3330068e-003  1.8732120e-005  1.3331384e-003 -1.6196914e-002 -1.6196914e-002 -1.6196026e-002 
 2.3191020e-001  6.0982401e-003 -1.7265414e-003  1.9527881e-005  1.7266519e-003 -1.6304895e-002 -1.6304895e-002 -1.6303405e-002 
 2.6034039e-001  6.0982401e-003 -2.1581971e-003  1.9854286e-005  2.1582884e-003 -1.6296051e-002 -1.6296051e-002 -1.6293723e-002 
 2.9076070e-001  6.0982401e-003 -2.6190332e-003  1.9719910e-005  2.6191075e-003 -1.6142290e-002 -1.6142290e-002 -1.6138861e-002 
 3.2331041e-001  6.0982401e-003 -3.0960941e-003  1.9003446e-005  3.0961523e-003 -1.5810179e-002 -1.5810179e-002 -1.5805386e-002 
 3.5813856e-001  6.0982401e-003 -3.5703587e-003  1.7573886e-005  3.5704020e-003 -1.5262311e-002 -1.5262311e-002 -1.5255937e-002 
 3.9540476e-001  6.0982401e-003 -4.0139360e-003  1.5148327e-005  4.0139644e-003 -1.4457620e-002 -1.4457620e-002 -1.4449564e-002 
 4.3527961e-001  6.0982401e-003 -4.3876227e-003  1.1549144e-005  4.3876381e-003 -1.3361088e-002 -1.3361088e-002 -1.3351463e-002 
 4.7794560e-001  6.0982401e-003 -4.6367985e-003  6.3767293e-006  4.6368027e-003 -1.1946173e-002 -1.1946173e-002 -1.1935423e-002 
 5.2205443e-001  6.0982401e-003 -4.6799988e-003 -1.8857045e-006  4.6799993e-003 -1.0271554e-002 -1.0271554e-002 -1.0260602e-002 
 5.6472039e-001  6.0982401e-003 -4.4869026e-003 -9.5618270e-006  4.4869129e-003 -8.6544473e-003 -8.6544473e-003 -8.6443815e-003 
 6.0459524e-001  6.0982401e-003 -4.1081430e-003 -1.6156770e-005  4.1081747e-003 -7.2828243e-003 -7.2828243e-003 -7.2743855e-003 
 6.4186144e-001  6.0982401e-003 -3.6014330e-003 -2.1517026e-005  3.6014973e-003 -6.2259431e-003 -6.2259431e-003 -6.2194578e-003 
 6.7668962e-001  6.0982401e-003 -3.0238717e-003 -2.4971503e-005  3.0239748e-003 -5.5201375e-003 -5.5201375e-003 -5.5155652e-003 
 7.0923930e-001  6.0982401e-003 -2.4285857e-003 -2.6436363e-005  2.4287296e-003 -5.1538553e-003 -5.1538553e-003 -5.1509058e-003 
 7.3965955e-001  6.0982401e-003 -1.8578519e-003 -2.6108335e-005  1.8580353e-003 -5.0838287e-003 -5.0838287e-003 -5.0821025e-003 
 7.6808977e-001  6.0982401e-003 -1.3417316e-003 -2.4233997e-005  1.3419505e-003 -5.2513275e-003 -5.2513275e-003 -5.2504269e-003 
 7.9466009e-001  6.0982401e-003 -8.9915696e-004 -2.1103919e-005  8.9940458e-004 -5.5917320e-003 -5.5917320e-003 -5.5913273e-003 
 8.1949216e-001  6.0982401e-003 -5.3910923e-004 -1.7138073e-005  5.3938158e-004 -6.0410220e-003 -6.0410220e-003 -6.0408767e-003 
 8.4269965e-001  6.0982401e-003 -2.6245599e-004 -1.2652950e-005  2.6276082e-004 -6.5426966e-003 -6.5426966e-003 -6.5426622e-003 
 8.6438888e-001  6.0982401e-003 -6.4124302e-005 -7.8900921e-006  6.4607892e-005 -7.0496337e-003 -7.0496337e-003 -7.0496318e-003 
 8.8465917e-001  6.0982401e-003  6.4162545e-005 -3.6374352e-006  6.4265565e-005 -7.5293351e-003 -7.5293351e-003 -7.5293332e-003 
 9.0360343e-001  6.0982401e-003  1.3322904e-004  7.0822074e-007  1.3323092e-004 -7.9504829e-003 -7.9504829e-003 -7.9504736e-003 
 9.2130828e-001  6.0982401e-003  1.5493126e-004  4.1139424e-006  1.5498587e-004 -8.3002569e-003 -8.3002569e-003 -8.3002448e-003 
 9.3785501e-001  6.0982401e-003  1.4162861e-004  7.8952216e-006  1.4184850e-004 -8.5620442e-003 -8.5620442e-003 -8.5620340e-003 
 9.5331907e-001  6.0982401e-003  1.0613117e-004  1.0160054e-005  1.0661637e-004 -8.7376479e-003 -8.7376479e-003 -8.7376423e-003 
 9.6777147e-001  6.0982401e-003  6.1121180e-005  1.0435937e-005  6.2005704e-005 -8.8294474e-003 -8.8294474e-003 -8.8294456e-003 
 9.8127842e-001  6.0982401e-003  2.0531457e-005  7.4271184e-006  2.1833524e-005 -8.8476939e-003 -8.8476939e-003 -8.8476939e-003 
 9.9390173e-001  6.0982401e-003 -3.3013301e-008 -1.6049308e-008  3.6707743e-008 -8.8130310e-003 -8.8130310e-003 -8.8130310e-003 
 1.0000000e+000  6.0982401e-003  0.0000000e+000  0.0000000e+000  0.0000000e+000 -8.7962858e-003 -8.7962858e-003 -8.7962858e-003 
 0.0000000e+000  1.8721581e-002  0.0000000e+000  0.0000000e+000  0.0000000e+000 -1.3719202e-002 -1.3719202e-002 -1.3719202e-002 
 6.0982401e-003  1.8721581e-002  1.0094454e-005 -2.5186910e-005  2.7134451e-005 -1.3717709e-002 -1.3717709e-002 -1.3717709e-002 
 1.8721581e-002  1.8721581e-002  4.5197412e-005 -4.5042991e-005  6.3809697e-005 -1.3714619e-002 -1.3714619e-002 -1.3714617e-002 
 3.2228529e-002  1.8721581e-002  7.8003097e-005 -3.1472337e-005  8.4112966e-005 -1.3774716e-002 -1.3774716e-002 -1.3774713e-002 
 4.6680957e-002  1.8721581e-002  7.0346410e-005  4.3870336e-006  7.0483075e-005 -1.3900471e-002 -1.3900471e-002 -1.3900468e-002 
 6.2145084e-002  1.8721581e-002 -1.0074855e-005  5.1910800e-005  5.2879426e-005 -1.4079949e-002 -1.4079949e-002 -1.4079947e-002 
 7.8691721e-002  1.8721581e-002 -1.8941691e-004  1.0567468e-004  2.1690068e-004 -1.4310013e-002 -1.4310013e-002 -1.4309989e-002 
 9.6396603e-002  1.8721581e-002 -4.8937288e-004  1.6060969e-004  5.1505462e-004 -1.4576987e-002 -1.4576987e-002 -1.4576855e-002 
 1.1534080e-001  1.8721581e-002 -9.2583755e-004  2.1303499e-004  9.5003110e-004 -1.4864922e-002 -1.4864922e-002 -1.4864470e-002 
 1.3561110e-001  1.8721581e-002 -1.5091513e-003  2.6037055e-004  1.5314472e-003 -1.5155730e-002 -1.5155730e-002 -1.5154557e-002 
 1.5730035e-001  1.8721581e-002 -2.2440625e-003  3.0081294e-004  2.2641344e-003 -1.5429666e-002 -1.5429666e-002 -1.5427103e-002 
 1.8050785e-001  1.8721581e-002 -3.1296890e-003  3.3315548e-004  3.1473713e-003 -1.5665852e-002 -1.5665852e-002 -1.5660899e-002 
 2.0533991e-001  1.8721581e-002 -4.1594584e-003  3.5662708e-004  4.1747186e-003 -1.5842460e-002 -1.5842460e-002 -1.5833747e-002 
 2.3191020e-001  1.8721581e-002 -5.3208093e-003  3.7070242e-004  5.3337072e-003 -1.5936559e-002 -1.5936559e-002 -1.5922334e-002 
 2.6034039e-001  1.8721581e-002 -6.5946057e-003  3.7494636e-004  6.6052563e-003 -1.5923874e-002 -1.5923874e-002 -1.5902059e-002 
 2.9076070e-001  1.8721581e-002 -7.9534715e-003  3.6851087e-004  7.9620043e-003 -1.5777370e-002 -1.5777370e-002 -1.5745673e-002 
 3.2331041e-001  1.8721581e-002 -9.3576759e-003  3.4956887e-004  9.3642026e-003 -1.5465290e-002 -1.5465290e-002 -1.5421446e-002 
 3.5813856e-001  1.8721581e-002 -1.0749329e-002  3.1557903e-004  1.0753960e-002 -1.4952706e-002 -1.4952706e-002 -1.4894882e-002 
 3.9540476e-001  1.8721581e-002 -1.2044699e-002  2.6298137e-004  1.2047569e-002 -1.4201676e-002 -1.4201676e-002 -1.4129103e-002 
 4.3527961e-001  1.8721581e-002 -1.3126867e-002  1.8798323e-004  1.3128213e-002 -1.3181032e-002 -1.3181032e-002 -1.3094856e-002 
 4.7794560e-001  1.8721581e-002 -1.3834273e-002  8.5425323e-005  1.3834537e-002 -1.1868143e-002 -1.1868143e-002 -1.1772446e-002 
 5.2205443e-001  1.8721581e-002 -1.3941223e-002 -4.4522792e-005  1.3941294e-002 -1.0319619e-002 -1.0319619e-002 -1.0222440e-002 
 5.6472039e-001  1.8721581e-002 -1.3368246e-002 -1.7366667e-004  1.3369374e-002 -8.8266796e-003 -8.8266796e-003 -8.7373098e-003 
 6.0459524e-001  1.8721581e-002 -1.2259223e-002 -2.8546274e-004  1.2262546e-002 -7.5624459e-003 -7.5624459e-003 -7.4872607e-003 
 6.4186144e-001  1.8721581e-002 -1.0783115e-002 -3.7309571e-004  1.0789568e-002 -6.5887757e-003 -6.5887757e-003 -6.5305685e-003 
 6.7668962e-001  1.8721581e-002 -9.1057224e-003 -4.3080939e-004  9.1159083e-003 -5.9379116e-003 -5.9379116e-003 -5.8963615e-003 
 7.0923930e-001  1.8721581e-002 -7.3785740e-003 -4.5747551e-004  7.3927422e-003 -5.5974498e-003 -5.5974498e-003 -5.5701234e-003 
 7.3965955e-001  1.8721581e-002 -5.7220780e-003 -4.5566433e-004  5.7401923e-003 -5.5263867e-003 -5.5263867e-003 -5.5099116e-003 
 7.6808977e-001  1.8721581e-002 -4.2216540e-003 -4.2960185e-004  4.2434563e-003 -5.6700720e-003 -5.6700720e-003 -5.6610685e-003 
 7.9466009e-001  1.8721581e-002 -2.9305874e-003 -3.8443477e-004  2.9556949e-003 -5.9689223e-003 -5.9689223e-003 -5.9645544e-003 
 8.1949216e-001  1.8721581e-002 -1.8738519e-003 -3.2607783e-004  1.9020115e-003 -6.3642683e-003 -6.3642683e-003 -6.3624596e-003 
 8.4269965e-001  1.8721581e-002 -1.0535121e-003 -2.6003283e-004  1.0851290e-003 -6.8049030e-003 -6.8049030e-003 -6.8043144e-003 
 8.6438888e-001  1.8721581e-002 -4.5522713e-004 -1.9112245e-004  4.9372012e-004 -7.2488491e-003 -7.2488491e-003 -7.2487271e-003 
 8.8465917e-001  1.8721581e-002 -5.4452306e-005 -1.2424517e-004  1.3565367e-004 -7.6650684e-003 -7.6650684e-003 -7.6650591e-003 
 9.0360343e-001  1.8721581e-002  1.7981030e-004 -6.1873543e-005  1.9015804e-004 -8.0295652e-003 -8.0295652e-003 -8.0295475e-003 
 9.2130828e-001  1.8721581e-002  2.8211405e-004 -8.1010803e-006  2.8223035e-004 -8.3275530e-003 -8.3275530e-003 -8.3275130e-003 
 9.3785501e-001  1.8721581e-002  2.8714578e-004  3.5158973e-005  2.8929027e-004 -8.5553769e-003 -8.5553769e-003 -8.5553350e-003 
 9.5331907e-001  1.8721581e-002  2.2942550e-004  6.3200096e-005  2.3797124e-004 -8.7081436e-003 -8.7081436e-003 -8.7081157e-003 
 9.6777147e-001  1.8721581e-002  1.4243186e-004  7.2194955e-005  1.5968390e-004 -8.7919664e-003 -8.7919664e-003 -8.7919533e-003 
 9.8127842e-001  1.8721581e-002  5.7983358e-005  5.8100413e-005  8.2083665e-005 -8.8134231e-003 -8.8134231e-003 -8.8134194e-003 
 9.9390173e-001  1.8721581e-002  7.3024758e-006  2.0468253e-005  2.1731901e-005 -8.7785004e-003 -8.7785004e-003 -8.7785004e-003 
 1.0000000e+000  1.8721581e-002  0.0000000e+000  0.0000000e+000  0.0000000e+000 -8.7616295e-003 -8.7616295e-003 -8.7616295e-003 
 0.0000000e+000  3.2228529e-002  0.0000000e+000  0.0000000e+000  0.0000000e+000 -1.3645176e-002 -1.3645176e-002 -1.3645176e-002 
 6.0982401e-003  3.2228529e-002  9.2953505e-006 -5.1952691e-005  5.2777701e-005 -1.3648339e-002 -1.3648339e-002 -1.3648338e-002 
 1.8721581e-002  3.2228529e-002  3.2001644e-005 -7.8037570e-005  8.4344341e-005 -1.3654886e-002 -1.3654886e-002 -1.3654882e-002 
 3.2228529e-002  3.2228529e-002  2.9589894e-005 -2.9226179e-005  4.1590039e-005 -1.3715514e-002 -1.3715514e-002 -1.3715513e-002 
 4.6680957e-002  3.2228529e-002 -4.5010205e-005  7.3257674e-005  8.5980260e-005 -1.3830421e-002 -1.3830421e-002 -1.3830417e-002 
 6.2145084e-002  3.2228529e-002 -2.3579360e-004  2.1071598e-004  3.1622752e-004 -1.3992996e-002 -1.3992996e-002 -1.3992946e-002 
 7.8691721e-002  3.2228529e-002 -5.8179087e-004  3.6675896e-004  6.8774470e-004 -1.4197590e-002 -1.4197590e-002 -1.4197353e-002 
 9.6396603e-002  3.2228529e-002 -1.1166049e-003  5.2825460e-004  1.2352568e-003 -1.4434246e-002 -1.4434246e-002 -1.4433484e-002 
 1.1534080e-001  3.2228529e-002 -1.8668454e-003  6.8467768e-004  1.9884405e-003 -1.4689883e-002 -1.4689883e-002 -1.4687906e-002 
 1.3561110e-001  3.2228529e-002 -2.8511402e-003  8.2785566e-004  2.9688964e-003 -1.4948914e-002 -1.4948914e-002 -1.4944507e-002 
 1.5730035e-001  3.2228529e-002 -4.0794034e-003  9.5165009e-004  4.1889343e-003 -1.5193745e-002 -1.5193745e-002 -1.5184972e-002 
 1.8050785e-001  3.2228529e-002 -5.5522867e-003  1.0516356e-003  5.6510023e-003 -1.5405278e-002 -1.5405278e-002 -1.5389311e-002 
 2.0533991e-001  3.2228529e-002 -7.2606788e-003  1.1247026e-003  7.3472722e-003 -1.5563132e-002 -1.5563132e-002 -1.5536141e-002 
 2.3191020e-001  3.2228529e-002 -9.1848914e-003  1.1685406e-003  9.2589259e-003 -1.5645545e-002 -1.5645545e-002 -1.5602681e-002 
 2.6034039e-001  3.2228529e-002 -1.1293395e-002  1.1810844e-003  1.1354988e-002 -1.5629381e-002 -1.5629381e-002 -1.5564913e-002 
 2.9076070e-001  3.2228529e-002 -1.3539820e-002  1.1591389e-003  1.3589346e-002 -1.5488802e-002 -1.5488802e-002 -1.5396466e-002 
 3.2331041e-001  3.2228529e-002 -1.5856495e-002  1.0969598e-003  1.5894394e-002 -1.5193498e-002 -1.5193498e-002 -1.5067182e-002 
 3.5813856e-001  3.2228529e-002 -1.8145306e-002  9.8659622e-004  1.8172108e-002 -1.4710475e-002 -1.4710475e-002 -1.4545362e-002 
 3.9540476e-001  3.2228529e-002 -2.0265808e-002  8.1746653e-004  2.0282289e-002 -1.4004074e-002 -1.4004074e-002 -1.3798389e-002 
 4.3527961e-001  3.2228529e-002 -2.2023536e-002  5.7787570e-004  2.2031117e-002 -1.3045846e-002 -1.3045846e-002 -1.2803161e-002 
 4.7794560e-001  3.2228529e-002 -2.3152860e-002  2.5388741e-004  2.3154251e-002 -1.1814400e-002 -1.1814400e-002 -1.1546340e-002 
 5.2205443e-001  3.2228529e-002 -2.3300597e-002 -1.4574834e-004  2.3301054e-002 -1.0363491e-002 -1.0363491e-002 -1.0092022e-002 
 5.6472039e-001  3.2228529e-002 -2.2348763e-002 -5.4472004e-004  2.2355400e-002 -8.9651430e-003 -8.9651430e-003 -8.7152608e-003 
 6.0459524e-001  3.2228529e-002 -2.0529468e-002 -8.9008838e-004  2.0548753e-002 -7.7820905e-003 -7.7820905e-003 -7.5709647e-003 
 6.4186144e-001  3.2228529e-002 -1.8118812e-002 -1.1594169e-003  1.8155869e-002 -6.8702083e-003 -6.8702083e-003 -6.7053903e-003 
 6.7668962e-001  3.2228529e-002 -1.5385616e-002 -1.3370590e-003  1.5443604e-002 -6.2595177e-003 -6.2595177e-003 -6.1402651e-003 
 7.0923930e-001  3.2228529e-002 -1.2572555e-002 -1.4200544e-003  1.2652498e-002 -5.9376489e-003 -5.9376489e-003 -5.8576060e-003 
 7.3965955e-001  3.2228529e-002 -9.8720398e-003 -1.4162473e-003  9.9731097e-003 -5.8655664e-003 -5.8655664e-003 -5.8158347e-003 
 7.6808977e-001  3.2228529e-002 -7.4202162e-003 -1.3387885e-003  7.5400239e-003 -5.9918896e-003 -5.9918896e-003 -5.9634638e-003 
 7.9466009e-001  3.2228529e-002 -5.3015659e-003 -1.2036264e-003  5.4364800e-003 -6.2610880e-003 -6.2610880e-003 -6.2463102e-003 
 8.1949216e-001  3.2228529e-002 -3.5555295e-003 -1.0286148e-003  3.7013292e-003 -6.6184830e-003 -6.6184830e-003 -6.6116331e-003 
 8.4269965e-001  3.2228529e-002 -2.1852066e-003 -8.3063904e-004  2.3377531e-003 -7.0167817e-003 -7.0167817e-003 -7.0140492e-003 
 8.6438888e-001  3.2228529e-002 -1.1677369e-003 -6.2464579e-004  1.3243081e-003 -7.4176420e-003 -7.4176420e-003 -7.4167652e-003 
 8.8465917e-001  3.2228529e-002 -4.6366712e-004 -4.2384354e-004  6.2819629e-004 -7.7925990e-003 -7.7925990e-003 -7.7924016e-003 
 9.0360343e-001  3.2228529e-002 -2.3665152e-005 -2.3845871e-004  2.3963013e-004 -8.1210239e-003 -8.1210239e-003 -8.1209950e-003 
 9.2130828e-001  3.2228529e-002  2.0621564e-004 -7.8254539e-005  2.2056443e-004 -8.3905905e-003 -8.3905905e-003 -8.3905663e-003 
 9.3785501e-001  3.2228529e-002  2.8031020e-004  4.8004425e-005  2.8439099e-004 -8.5957879e-003 -8.5957879e-003 -8.5957479e-003 
 9.5331907e-001  3.2228529e-002  2.5108497e-004  1.3201067e-004  2.8367320e-004 -8.7356707e-003 -8.7356707e-003 -8.7356307e-003 
 9.6777147e-001  3.2228529e-002  1.6698301e-004  1.6569093e-004  2.3523778e-004 -8.8147772e-003 -8.8147772e-003 -8.8147493e-003 
 9.8127842e-001  3.2228529e-002  7.2419600e-005  1.4251852e-004  1.5986283e-004 -8.8355690e-003 -8.8355690e-003 -8.8355560e-003 
 9.9390173e-001  3.2228529e-002  1.0202574e-005  6.0840579e-005  6.1690102e-005 -8.7962635e-003 -8.7962635e-003 -8.7962616e-003 
 1.0000000e+000  3.2228529e-002  0.0000000e+000  0.0000000e+000  0.0000000e+000 -8.7772748e-003 -8.7772748e-003 -8.7772748e-003 
 0.0000000e+000  4.6680957e-002  0.0000000e+000  0.0000000e+000  0.0000000e+000 -1.3485697e-002 -1.3485697e-002 -1.3485697e-002 
 6.0982401e-003  4.6680957e-002  5.4678644e-006 -6.5635002e-005  6.5862361e-005 -1.3499816e-002 -1.3499816e-002 -1.3499814e-002 
 1.8721581e-002  4.6680957e-002 -4.0012128e-006 -7.0541428e-005  7.0654816e-005 -1.3529043e-002 -1.3529043e-002 -1.3529040e-002 
 3.2228529e-002  4.6680957e-002 -7.4547512e-005  4.5517816e-005  8.7345310e-005 -1.3602427e-002 -1.3602427e-002 -1.3602423e-002 
 4.6680957e-002  4.6680957e-002 -2.5615896e-004  2.5272902e-004  3.5984631e-004 -1.3718737e-002 -1.3718737e-002 -1.3718672e-002 
 6.2145084e-002  4.6680957e-002 -5.9900811e-004  5.2273145e-004  7.9502130e-004 -1.3874776e-002 -1.3874776e-002 -1.3874460e-002 
 7.8691721e-002  4.6680957e-002 -1.1508309e-003  8.2872680e-004  1.4181677e-003 -1.4065233e-002 -1.4065233e-002 -1.4064227e-002 
 9.6396603e-002  4.6680957e-002 -1.9545124e-003  1.1472976e-003  2.2663651e-003 -1.4282068e-002 -1.4282068e-002 -1.4279500e-002 
 1.1534080e-001  4.6680957e-002 -3.0457380e-003  1.4585248e-003  3.3769535e-003 -1.4514437e-002 -1.4514437e-002 -1.4508735e-002 
 1.3561110e-001  4.6680957e-002 -4.4509275e-003  1.7459888e-003  4.7811330e-003 -1.4748977e-002 -1.4748977e-002 -1.4737548e-002 
 1.5730035e-001  4.6680957e-002 -6.1855065e-003  1.9966585e-003  6.4997799e-003 -1.4970250e-002 -1.4970250e-002 -1.4949127e-002 
 1.8050785e-001  4.6680957e-002 -8.2524950e-003  2.2005867e-003  8.5408576e-003 -1.5161140e-002 -1.5161140e-002 -1.5124667e-002 
 2.0533991e-001  4.6680957e-002 -1.0641222e-002  2.3503187e-003  1.0897688e-002 -1.5303028e-002 -1.5303028e-002 -1.5243648e-002 
 2.3191020e-001  4.6680957e-002 -1.3325680e-002  2.4399911e-003  1.3547225e-002 -1.5375703e-002 -1.5375703e-002 -1.5283939e-002 
 2.6034039e-001  4.6680957e-002 -1.6262371e-002  2.4642241e-003  1.6448012e-002 -1.5357608e-002 -1.5357608e-002 -1.5222339e-002 
 2.9076070e-001  4.6680957e-002 -1.9385761e-002  2.4155141e-003  1.9535670e-002 -1.5224287e-002 -1.5224287e-002 -1.5033466e-002 
 3.2331041e-001  4.6680957e-002 -2.2599582e-002  2.2816882e-003  2.2714471e-002 -1.4946887e-002 -1.4946887e-002 -1.4688914e-002 
 3.5813856e-001  4.6680957e-002 -2.5764726e-002  2.0462966e-003  2.5845859e-002 -1.4494079e-002 -1.4494079e-002 -1.4160075e-002 
 3.9540476e-001  4.6680957e-002 -2.8683802e-002  1.6880922e-003  2.8733432e-002 -1.3831966e-002 -1.3831966e-002 -1.3419161e-002 
 4.3527961e-001  4.6680957e-002 -3.1085981e-002  1.1836874e-003  3.1108510e-002 -1.2933968e-002 -1.2933968e-002 -1.2450098e-002 
 4.7794560e-001  4.6680957e-002 -3.2605976e-002  5.0825340e-004  3.2609936e-002 -1.1777719e-002 -1.1777719e-002 -1.1246015e-002 
 5.2205443e-001  4.6680957e-002 -3.2777056e-002 -3.1294618e-004  3.2778550e-002 -1.0412478e-002 -1.0412478e-002 -9.8752612e-003 
 5.6472039e-001  4.6680957e-002 -3.1450517e-002 -1.1327895e-003  3.1470910e-002 -9.0957293e-003 -9.0957293e-003 -8.6005200e-003 
 6.0459524e-001  4.6680957e-002 -2.8943365e-002 -1.8420171e-003  2.9001921e-002 -7.9822550e-003 -7.9822550e-003 -7.5616990e-003 
 6.4186144e-001  4.6680957e-002 -2.5633812e-002 -2.3936545e-003  2.5745329e-002 -7.1225585e-003 -7.1225585e-003 -6.7911474e-003 
 6.7668962e-001  4.6680957e-002 -2.1887248e-002 -2.7579411e-003  2.2060324e-002 -6.5457099e-003 -6.5457099e-003 -6.3023809e-003 
 7.0923930e-001  4.6680957e-002 -1.8030601e-002 -2.9298062e-003  1.8267084e-002 -6.2400210e-003 -6.2400210e-003 -6.0731778e-003 
 7.3965955e-001  4.6680957e-002 -1.4322612e-002 -2.9254726e-003  1.4618331e-002 -6.1683673e-003 -6.1683673e-003 -6.0615195e-003 
 7.6808977e-001  4.6680957e-002 -1.0945973e-002 -2.7720868e-003  1.1291537e-002 -6.2820418e-003 -6.2820418e-003 -6.2182923e-003 
 7.9466009e-001  4.6680957e-002 -8.0137979e-003 -2.5022808e-003  8.3953775e-003 -6.5291496e-003 -6.5291496e-003 -6.4939084e-003 
 8.1949216e-001  4.6680957e-002 -5.5791233e-003 -2.1521936e-003  5.9798458e-003 -6.8581677e-003 -6.8581677e-003 -6.8402886e-003 
 8.4269965e-001  4.6680957e-002 -3.6464301e-003 -1.7561360e-003  4.0472788e-003 -7.2249346e-003 -7.2249346e-003 -7.2167446e-003 
 8.6438888e-001  4.6680957e-002 -2.1855698e-003 -1.3445080e-003  2.5660119e-003 -7.5940229e-003 -7.5940229e-003 -7.5907307e-003 
 8.8465917e-001  4.6680957e-002 -1.1441191e-003 -9.4342412e-004  1.4829220e-003 -7.9393033e-003 -7.9393033e-003 -7.9382034e-003 
 9.0360343e-001  4.6680957e-002 -4.5686937e-004 -5.7426392e-004  7.3383149e-004 -8.2423612e-003 -8.2423612e-003 -8.2420921e-003 
 9.2130828e-001  4.6680957e-002 -5.3214553e-005 -2.5543850e-004  2.6092262e-004 -8.4924158e-003 -8.4924158e-003 -8.4923813e-003 
 9.3785501e-001  4.6680957e-002  1.3733102e-004 -2.7898702e-006  1.3735935e-004 -8.6841909e-003 -8.6841909e-003 -8.6841816e-003 
 9.5331907e-001  4.6680957e-002  1.8147362e-004  1.6997523e-004  2.4864482e-004 -8.8175647e-003 -8.8175647e-003 -8.8175340e-003 
 9.6777147e-001  4.6680957e-002  1.3946077e-004  2.5095884e-004  2.8710562e-004 -8.8959429e-003 -8.8959429e-003 -8.8959020e-003 
 9.8127842e-001  4.6680957e-002  6.5430424e-005  2.3121826e-004  2.4029778e-004 -8.9196330e-003 -8.9196330e-003 -8.9196041e-003 
 9.9390173e-001  4.6680957e-002  9.9624094e-006  1.0611149e-004  1.0657813e-004 -8.8857757e-003 -8.8857757e-003 -8.8857701e-003 
 1.0000000e+000  4.6680957e-002  0.0000000e+000  0.0000000e+000  0.0000000e+000 -8.8694189e-003 -8.8694189e-003 -8.8694189e-003 
 0.0000000e+000  6.2145084e-002  0.0000000e+000  0.0000000e+000  0.0000000e+000 -1.3236268e-002 -1.3236268e-002 -1.3236268e-002 
 6.0982401e-003  6.2145084e-002  2.0072746e-006 -5.1600178e-005  5.1639207e-005 -1.3272529e-002 -1.3272529e-002 -1.3272528e-002 
 1.8721581e-002  6.2145084e-002 -5.3398770e-005  1.1800576e-005  5.4687131e-005 -1.3347588e-002 -1.3347588e-002 -1.3347586e-002 
 3.2228529e-002  6.2145084e-002 -2.1907933e-004  2.4032230e-004  3.2519310e-004 -1.3441062e-002 -1.3441062e-002 -1.3441009e-002 
 4.6680957e-002  6.2145084e-002 -5.4138020e-004  5.9791398e-004  8.0659386e-004 -1.3567775e-002 -1.3567775e-002 -1.3567450e-002 
 6.2145084e-002  6.2145084e-002 -1.0739296e-003  1.0476692e-003  1.5003118e-003 -1.3726142e-002 -1.3726142e-002 -1.3725017e-002 
 7.8691721e-002  6.2145084e-002 -1.8698472e-003  1.5527568e-003  2.4305107e-003 -1.3910954e-002 -1.3910954e-002 -1.3908000e-002 
 9.6396603e-002  6.2145084e-002 -2.9783207e-003  2.0788063e-003  3.6320558e-003 -1.4115589e-002 -1.4115589e-002 -1.4108993e-002 
 1.1534080e-001  6.2145084e-002 -4.4418336e-003  2.5949616e-003  5.1442892e-003 -1.4331154e-002 -1.4331154e-002 -1.4317921e-002 
 1.3561110e-001  6.2145084e-002 -6.2931976e-003  3.0744951e-003  7.0040599e-003 -1.4546398e-002 -1.4546398e-002 -1.4521870e-002 
 1.5730035e-001  6.2145084e-002 -8.5527701e-003  3.4951509e-003  9.2393700e-003 -1.4748069e-002 -1.4748069e-002 -1.4705386e-002 
 1.8050785e-001  6.2145084e-002 -1.1226005e-002  3.8390746e-003  1.1864303e-002 -1.4921210e-002 -1.4921210e-002 -1.4850829e-002 
 2.0533991e-001  6.2145084e-002 -1.4301109e-002  4.0921490e-003  1.4875060e-002 -1.5049246e-002 -1.5049246e-002 -1.4938612e-002 
 2.3191020e-001  6.2145084e-002 -1.7746298e-002  4.2427313e-003  1.8246420e-002 -1.5113860e-002 -1.5113860e-002 -1.4947395e-002 
 2.6034039e-001  6.2145084e-002 -2.1506570e-002  4.2799595e-003  2.1928307e-002 -1.5095560e-002 -1.5095560e-002 -1.4855134e-002 
 2.9076070e-001  6.2145084e-002 -2.5497409e-002  4.1895155e-003  2.5839308e-002 -1.4971366e-002 -1.4971366e-002 -1.4637531e-002 
 3.2331041e-001  6.2145084e-002 -2.9593760e-002  3.9498559e-003  2.9856188e-002 -1.4714029e-002 -1.4714029e-002 -1.4268333e-002 
 3.5813856e-001  6.2145084e-002 -3.3615440e-002  3.5327035e-003  3.3800561e-002 -1.4293719e-002 -1.4293719e-002 -1.3722480e-002 
 3.9540476e-001  6.2145084e-002 -3.7308656e-002  2.9024608e-003  3.7421387e-002 -1.3677902e-002 -1.3677902e-002 -1.2977721e-002 