Variables = "x","y", "Velocity_x", "Velocity_y", "Velocity_whole value", "Pressure", "Absolute pressure", "Total pressure"
Zone i=42, j=42
 0.0000000e+000  0.0000000e+000  0.0000000e+000  0.0000000e+000  0.0000000e+000  1.7267913e-002  1.7267913e-002  1.7267913e-002 
 6.0982401e-003  0.0000000e+000  0.0000000e+000  0.0000000e+000  0.0000000e+000  1.7279657e-002  1.7279657e-002  1.7279657e-002 
 1.8721581e-002  0.0000000e+000  0.0000000e+000  0.0000000e+000  0.0000000e+000  1.7303968e-002  1.7303968e-002  1.7303968e-002 
 3.2228529e-002  0.0000000e+000  0.0000000e+000  0.0000000e+000  0.0000000e+000  1.7323820e-002  1.7323820e-002  1.7323820e-002 
 4.6680957e-002  0.0000000e+000  0.0000000e+000  0.0000000e+000  0.0000000e+000  1.7322734e-002  1.7322734e-002  1.7322734e-002 
 6.2145084e-002  0.0000000e+000  0.0000000e+000  0.0000000e+000  0.0000000e+000  1.7286090e-002  1.7286090e-002  1.7286090e-002 
 7.8691721e-002  0.0000000e+000  0.0000000e+000  0.0000000e+000  0.0000000e+000  1.7208610e-002  1.7208610e-002  1.7208610e-002 
 9.6396603e-002  0.0000000e+000  0.0000000e+000  0.0000000e+000  0.0000000e+000  1.7094802e-002  1.7094802e-002  1.7094802e-002 
 1.1534080e-001  0.0000000e+000  0.0000000e+000  0.0000000e+000  0.0000000e+000  1.6955355e-002  1.6955355e-002  1.6955355e-002 
 1.3561110e-001  0.0000000e+000  0.0000000e+000  0.0000000e+000  0.0000000e+000  1.6799450e-002  1.6799450e-002  1.6799450e-002 
 1.5730035e-001  0.0000000e+000  0.0000000e+000  0.0000000e+000  0.0000000e+000  1.6623409e-002  1.6623409e-002  1.6623409e-002 
 1.8050785e-001  0.0000000e+000  0.0000000e+000  0.0000000e+000  0.0000000e+000  1.6400019e-002  1.6400019e-002  1.6400019e-002 
 2.0533991e-001  0.0000000e+000  0.0000000e+000  0.0000000e+000  0.0000000e+000  1.6089221e-002  1.6089221e-002  1.6089221e-002 
 2.3191020e-001  0.0000000e+000  0.0000000e+000  0.0000000e+000  0.0000000e+000  1.5643310e-002  1.5643310e-002  1.5643310e-002 
 2.6034039e-001  0.0000000e+000  0.0000000e+000  0.0000000e+000  0.0000000e+000  1.5002005e-002  1.5002005e-002  1.5002005e-002 
 2.9076070e-001  0.0000000e+000  0.0000000e+000  0.0000000e+000  0.0000000e+000  1.4095638e-002  1.4095638e-002  1.4095638e-002 
 3.2331041e-001  0.0000000e+000  0.0000000e+000  0.0000000e+000  0.0000000e+000  1.2863359e-002  1.2863359e-002  1.2863359e-002 
 3.5813856e-001  0.0000000e+000  0.0000000e+000  0.0000000e+000  0.0000000e+000  1.1317868e-002  1.1317868e-002  1.1317868e-002 
 3.9540476e-001  0.0000000e+000  0.0000000e+000  0.0000000e+000  0.0000000e+000  9.6627148e-003  9.6627148e-003  9.6627148e-003 
 4.3527961e-001  0.0000000e+000  0.0000000e+000  0.0000000e+000  0.0000000e+000  8.4956670e-003  8.4956670e-003  8.4956670e-003 
 4.7794560e-001  0.0000000e+000  0.0000000e+000  0.0000000e+000  0.0000000e+000  8.9470884e-003  8.9470884e-003  8.9470884e-003 
 5.2205443e-001  0.0000000e+000  0.0000000e+000  0.0000000e+000  0.0000000e+000  1.1932380e-002  1.1932380e-002  1.1932380e-002 
 5.6472039e-001  0.0000000e+000  0.0000000e+000  0.0000000e+000  0.0000000e+000  1.6774438e-002  1.6774438e-002  1.6774438e-002 
 6.0459524e-001  0.0000000e+000  0.0000000e+000  0.0000000e+000  0.0000000e+000  2.1617157e-002  2.1617157e-002  2.1617157e-002 
 6.4186144e-001  0.0000000e+000  0.0000000e+000  0.0000000e+000  0.0000000e+000  2.4857830e-002  2.4857830e-002  2.4857830e-002 
 6.7668962e-001  0.0000000e+000  0.0000000e+000  0.0000000e+000  0.0000000e+000  2.5288314e-002  2.5288314e-002  2.5288314e-002 
 7.0923930e-001  0.0000000e+000  0.0000000e+000  0.0000000e+000  0.0000000e+000  2.3079798e-002  2.3079798e-002  2.3079798e-002 
 7.3965955e-001  0.0000000e+000  0.0000000e+000  0.0000000e+000  0.0000000e+000  1.9255906e-002  1.9255906e-002  1.9255906e-002 
 7.6808977e-001  0.0000000e+000  0.0000000e+000  0.0000000e+000  0.0000000e+000  1.5520531e-002  1.5520531e-002  1.5520531e-002 
 7.9466009e-001  0.0000000e+000  0.0000000e+000  0.0000000e+000  0.0000000e+000  1.3045797e-002  1.3045797e-002  1.3045797e-002 
 8.1949216e-001  0.0000000e+000  0.0000000e+000  0.0000000e+000  0.0000000e+000  1.1630849e-002  1.1630849e-002  1.1630849e-002 
 8.4269965e-001  0.0000000e+000  0.0000000e+000  0.0000000e+000  0.0000000e+000  1.0933497e-002  1.0933497e-002  1.0933497e-002 
 8.6438888e-001  0.0000000e+000  0.0000000e+000  0.0000000e+000  0.0000000e+000  1.0638918e-002  1.0638918e-002  1.0638918e-002 
 8.8465917e-001  0.0000000e+000  0.0000000e+000  0.0000000e+000  0.0000000e+000  1.0545345e-002  1.0545345e-002  1.0545345e-002 
 9.0360343e-001  0.0000000e+000  0.0000000e+000  0.0000000e+000  0.0000000e+000  1.0542447e-002  1.0542447e-002  1.0542447e-002 
 9.2130828e-001  0.0000000e+000  0.0000000e+000  0.0000000e+000  0.0000000e+000  1.0575098e-002  1.0575098e-002  1.0575098e-002 
 9.3785501e-001  0.0000000e+000  0.0000000e+000  0.0000000e+000  0.0000000e+000  1.0618815e-002  1.0618815e-002  1.0618815e-002 
 9.5331907e-001  0.0000000e+000  0.0000000e+000  0.0000000e+000  0.0000000e+000  1.0665685e-002  1.0665685e-002  1.0665685e-002 
 9.6777147e-001  0.0000000e+000  0.0000000e+000  0.0000000e+000  0.0000000e+000  1.0713064e-002  1.0713064e-002  1.0713064e-002 
 9.8127842e-001  0.0000000e+000  0.0000000e+000  0.0000000e+000  0.0000000e+000  1.0754990e-002  1.0754990e-002  1.0754990e-002 
 9.9390173e-001  0.0000000e+000  0.0000000e+000  0.0000000e+000  0.0000000e+000  1.0782811e-002  1.0782811e-002  1.0782811e-002 
 1.0000000e+000  0.0000000e+000  0.0000000e+000  0.0000000e+000  0.0000000e+000  1.0796250e-002  1.0796250e-002  1.0796250e-002 
 0.0000000e+000  6.0982401e-003  0.0000000e+000  0.0000000e+000  0.0000000e+000  1.7256614e-002  1.7256614e-002  1.7256614e-002 
 6.0982401e-003  6.0982401e-003 -5.2433221e-005  4.9173694e-005  7.1883900e-005  1.7268365e-002  1.7268365e-002  1.7268367e-002 
 1.8721581e-002  6.0982401e-003  9.1096968e-005 -2.4246996e-005  9.4268631e-005  1.7292690e-002  1.7292690e-002  1.7292693e-002 
 3.2228529e-002  6.0982401e-003  5.4224348e-004 -9.1906491e-005  5.4997706e-004  1.7309565e-002  1.7309565e-002  1.7309716e-002 
 4.6680957e-002  6.0982401e-003  1.2245814e-003 -1.2173290e-004  1.2306171e-003  1.7305892e-002  1.7305892e-002  1.7306650e-002 
 6.2145084e-002  6.0982401e-003  2.0139557e-003 -1.1698788e-004  2.0173506e-003  1.7269051e-002  1.7269051e-002  1.7271085e-002 
 7.8691721e-002  6.0982401e-003  2.7568855e-003 -8.6943524e-005  2.7582562e-003  1.7193943e-002  1.7193943e-002  1.7197747e-002 
 9.6396603e-002  6.0982401e-003  3.3196858e-003 -4.8407637e-005  3.3200388e-003  1.7084438e-002  1.7084438e-002  1.7089950e-002 
 1.1534080e-001  6.0982401e-003  3.6409337e-003 -1.9809819e-005  3.6409874e-003  1.6950002e-002  1.6950002e-002  1.6956631e-002 
 1.3561110e-001  6.0982401e-003  3.7571641e-003 -1.3081332e-005  3.7571869e-003  1.6798530e-002  1.6798530e-002  1.6805587e-002 
 1.5730035e-001  6.0982401e-003  3.7693365e-003 -2.3448378e-005  3.7694094e-003  1.6625896e-002  1.6625896e-002  1.6633000e-002 
 1.8050785e-001  6.0982401e-003  3.7335563e-003 -4.8836144e-005  3.7338757e-003  1.6407149e-002  1.6407149e-002  1.6414119e-002 
 2.0533991e-001  6.0982401e-003  3.5771937e-003 -7.7580575e-005  3.5780349e-003  1.6104210e-002  1.6104210e-002  1.6110612e-002 
 2.3191020e-001  6.0982401e-003  3.0729554e-003 -8.3103063e-005  3.0740788e-003  1.5669908e-002  1.5669908e-002  1.5674634e-002 
 2.6034039e-001  6.0982401e-003  1.8424231e-003 -7.0687136e-005  1.8437786e-003  1.5046341e-002  1.5046341e-002  1.5048041e-002 
 2.9076070e-001  6.0982401e-003 -6.3683174e-004 -2.7369721e-005  6.3741964e-004  1.4164114e-002  1.4164114e-002  1.4164317e-002 
 3.2331041e-001  6.0982401e-003 -5.0525875e-003  6.9990914e-005  5.0530722e-003  1.2960967e-002  1.2960967e-002  1.2973733e-002 
 3.5813856e-001  6.0982401e-003 -1.2127934e-002  2.5523716e-004  1.2130620e-002  1.1443877e-002  1.1443877e-002  1.1517453e-002 
 3.9540476e-001  6.0982401e-003 -2.2406382e-002  6.1211159e-004  2.2414742e-002  9.7950734e-003  9.7950734e-003  1.0046284e-002 
 4.3527961e-001  6.0982401e-003 -3.5439685e-002  1.0512837e-003  3.5455275e-002  8.5930787e-003  8.5930787e-003  9.2216171e-003 
 4.7794560e-001  6.0982401e-003 -4.8551708e-002  1.2659703e-003  4.8568211e-002  8.9756446e-003  8.9756446e-003  1.0155080e-002 
 5.2205443e-001  6.0982401e-003 -5.6645107e-002  8.9810370e-004  5.6652226e-002  1.1895347e-002  1.1895347e-002  1.3500085e-002 
 5.6472039e-001  6.0982401e-003 -5.6774024e-002  3.3620506e-004  5.6775019e-002  1.6652267e-002  1.6652267e-002  1.8263970e-002 
 6.0459524e-001  6.0982401e-003 -4.6490904e-002 -3.6620529e-004  4.6492346e-002  2.1420231e-002  2.1420231e-002  2.2501001e-002 
 6.4186144e-001  6.0982401e-003 -2.9100936e-002 -1.1895441e-003  2.9125238e-002  2.4632724e-002  2.4632724e-002  2.5056863e-002 
 6.7668962e-001  6.0982401e-003 -8.0025159e-003 -1.4705493e-003  8.1365090e-003  2.5055537e-002  2.5055537e-002  2.5088638e-002 
 7.0923930e-001  6.0982401e-003  1.1455801e-002 -1.1214140e-003  1.1510558e-002  2.2861915e-002  2.2861915e-002  2.2928162e-002 
 7.3965955e-001  6.0982401e-003  2.4651896e-002 -2.7656351e-006  2.4651896e-002  1.9076711e-002  1.9076711e-002  1.9380569e-002 
 7.6808977e-001  6.0982401e-003  2.8329715e-002  7.5631699e-004  2.8339809e-002  1.5435232e-002  1.5435232e-002  1.5836805e-002 
 7.9466009e-001  6.0982401e-003  2.5486110e-002  1.0829793e-003  2.5509110e-002  1.3025512e-002  1.3025512e-002  1.3350870e-002 
 8.1949216e-001  6.0982401e-003  2.0355353e-002  9.3645602e-004  2.0376883e-002  1.1665636e-002  1.1665636e-002  1.1873244e-002 
 8.4269965e-001  6.0982401e-003  1.5138303e-002  6.6956243e-004  1.5153103e-002  1.0997586e-002  1.0997586e-002  1.1112394e-002 
 8.6438888e-001  6.0982401e-003  1.0772574e-002  4.2928444e-004  1.0781124e-002  1.0710755e-002  1.0710755e-002  1.0768872e-002 
 8.8465917e-001  6.0982401e-003  7.4282438e-003  2.7174322e-004  7.4332128e-003  1.0610987e-002  1.0610987e-002  1.0638613e-002 
 9.0360343e-001  6.0982401e-003  4.9635875e-003  1.7191052e-004  4.9665635e-003  1.0597717e-002  1.0597717e-002  1.0610051e-002 
 9.2130828e-001  6.0982401e-003  3.1811288e-003  1.1158234e-004  3.1830850e-003  1.0619814e-002  1.0619814e-002  1.0624880e-002 
 9.3785501e-001  6.0982401e-003  1.8915719e-003  7.8510857e-005  1.8932006e-003  1.0653920e-002  1.0653920e-002  1.0655711e-002 
 9.5331907e-001  6.0982401e-003  9.5979753e-004  5.5978991e-005  9.6142862e-004  1.0692168e-002  1.0692168e-002  1.0692630e-002 
 9.6777147e-001  6.0982401e-003  3.2421522e-004  2.4462533e-005  3.2513676e-004  1.0731796e-002  1.0731796e-002  1.0731849e-002 
 9.8127842e-001  6.0982401e-003 -2.4519983e-005 -3.2783038e-005  4.0938456e-005  1.0768227e-002  1.0768227e-002  1.0768228e-002 
 9.9390173e-001  6.0982401e-003 -8.3628773e-005 -8.5469139e-005  1.1957736e-004  1.0796357e-002  1.0796357e-002  1.0796364e-002 
 1.0000000e+000  6.0982401e-003  0.0000000e+000  0.0000000e+000  0.0000000e+000  1.0809946e-002  1.0809946e-002  1.0809946e-002 
 0.0000000e+000  1.8721581e-002  0.0000000e+000  0.0000000e+000  0.0000000e+000  1.7233226e-002  1.7233226e-002  1.7233226e-002 
 6.0982401e-003  1.8721581e-002  1.4703533e-005 -8.7631306e-005  8.8856286e-005  1.7244991e-002  1.7244991e-002  1.7244995e-002 
 1.8721581e-002  1.8721581e-002  5.3482543e-004 -5.5398396e-004  7.7002367e-004  1.7269345e-002  1.7269345e-002  1.7269641e-002 
 3.2228529e-002  1.8721581e-002  1.7026556e-003 -9.6824195e-004  1.9587057e-003  1.7280059e-002  1.7280059e-002  1.7281977e-002 
 4.6680957e-002  1.8721581e-002  3.3524570e-003 -1.1783481e-003  3.5535155e-003  1.7271029e-002  1.7271029e-002  1.7277343e-002 
 6.2145084e-002  1.8721581e-002  5.2279974e-003 -1.1521329e-003  5.3534443e-003  1.7233778e-002  1.7233778e-002  1.7248107e-002 
 7.8691721e-002  1.8721581e-002  7.0010386e-003 -9.2306413e-004  7.0616282e-003  1.7163584e-002  1.7163584e-002  1.7188517e-002 
 9.6396603e-002  1.8721581e-002  8.3613908e-003 -5.8734108e-004  8.3819944e-003  1.7062984e-002  1.7062984e-002  1.7098114e-002 
 1.1534080e-001  1.8721581e-002  9.1301007e-003 -2.6881471e-004  9.1340570e-003  1.6938921e-002  1.6938921e-002  1.6980637e-002 
 1.3561110e-001  1.8721581e-002  9.3180314e-003 -6.2667663e-005  9.3182418e-003  1.6796626e-002  1.6796626e-002  1.6840041e-002 
 1.5730035e-001  1.8721581e-002  9.0529202e-003  4.1411262e-005  9.0530152e-003  1.6631043e-002  1.6631043e-002  1.6672021e-002 
 1.8050785e-001  1.8721581e-002  8.3423080e-003  1.3632918e-004  8.3434219e-003  1.6421907e-002  1.6421907e-002  1.6456714e-002 
 2.0533991e-001  1.8721581e-002  6.8869242e-003  3.5054015e-004  6.8958397e-003  1.6135238e-002  1.6135238e-002  1.6159015e-002 
 2.3191020e-001  1.8721581e-002  3.9526653e-003  8.2262122e-004  4.0373593e-003  1.5724966e-002  1.5724966e-002  1.5733117e-002 
 2.6034039e-001  1.8721581e-002 -1.6374531e-003  1.6150314e-003  2.2999085e-003  1.5138119e-002  1.5138119e-002  1.5140763e-002 
 2.9076070e-001  1.8721581e-002 -1.1428484e-002  2.7845015e-003  1.1762810e-002  1.4305861e-002  1.4305861e-002  1.4375042e-002 
 3.2331041e-001  1.8721581e-002 -2.7140805e-002  4.3389155e-003  2.7485441e-002  1.3163014e-002  1.3163014e-002  1.3540739e-002 
 3.5813856e-001  1.8721581e-002 -4.9993660e-002  6.1468482e-003  5.0370127e-002  1.1704716e-002  1.1704716e-002  1.2973291e-002 
 3.9540476e-001  1.8721581e-002 -7.9682738e-002  7.7429330e-003  8.0058053e-002  1.0069056e-002  1.0069056e-002  1.3273702e-002 
 4.3527961e-001  1.8721581e-002 -1.1197073e-001  8.0874329e-003  1.1226242e-001  8.7947203e-003  8.7947203e-003  1.5096146e-002 
 4.7794560e-001  1.8721581e-002 -1.3830158e-001  6.2543247e-003  1.3844293e-001  9.0347556e-003  9.0347556e-003  1.8617978e-002 
 5.2205443e-001  1.8721581e-002 -1.4873062e-001  2.2965353e-003  1.4874835e-001  1.1818690e-002  1.1818690e-002  2.2881726e-002 
 5.6472039e-001  1.8721581e-002 -1.4184956e-001 -3.0068792e-003  1.4188142e-001  1.6399372e-002  1.6399372e-002  2.6464542e-002 
 6.0459524e-001  1.8721581e-002 -1.1427157e-001 -8.3549069e-003  1.1457659e-001  2.1012595e-002  2.1012595e-002  2.7576493e-002 
 6.4186144e-001  1.8721581e-002 -7.5982556e-002 -1.2521045e-002  7.7007309e-002  2.4166755e-002  2.4166755e-002  2.7131818e-002 
 6.7668962e-001  1.8721581e-002 -3.1882878e-002 -1.3996562e-002  3.4819845e-002  2.4573689e-002  2.4573689e-002  2.5179900e-002 
 7.0923930e-001  1.8721581e-002  9.4400514e-003 -1.2214674e-002  1.5437384e-002  2.2410898e-002  2.2410898e-002  2.2530055e-002 
 7.3965955e-001  1.8721581e-002  4.1076474e-002 -6.6077514e-003  4.1604556e-002  1.8705774e-002  1.8705774e-002  1.9571243e-002 
 7.6808977e-001  1.8721581e-002  5.6618437e-002 -3.2640237e-004  5.6619380e-002  1.5258662e-002  1.5258662e-002  1.6861539e-002 
 7.9466009e-001  1.8721581e-002  5.6963731e-002  3.6094186e-003  5.7077970e-002  1.2983521e-002  1.2983521e-002  1.4612469e-002 
 8.1949216e-001  1.8721581e-002  4.9995583e-002  5.0941310e-003  5.0254438e-002  1.1737644e-002  1.1737644e-002  1.3000398e-002 
 8.4269965e-001  1.8721581e-002  4.0026825e-002  5.1702154e-003  4.0359359e-002  1.1130249e-002  1.1130249e-002  1.1944688e-002 
 8.6438888e-001  1.8721581e-002  3.0153334e-002  4.5201122e-003  3.0490244e-002  1.0859460e-002  1.0859460e-002  1.1324287e-002 
 8.8465917e-001  1.8721581e-002  2.1767868e-002  3.6749153e-003  2.2075893e-002  1.0746865e-002  1.0746865e-002  1.0990537e-002 
 9.0360343e-001  1.8721581e-002  1.5141170e-002  2.8855170e-003  1.5413671e-002  1.0712126e-002  1.0712126e-002  1.0830916e-002 
 9.2130828e-001  1.8721581e-002  1.0109224e-002  2.2360929e-003  1.0353575e-002  1.0712374e-002  1.0712374e-002  1.0765973e-002 
 9.3785501e-001  1.8721581e-002  6.3560968e-003  1.7306232e-003  6.5874900e-003  1.0726585e-002  1.0726585e-002  1.0748283e-002 
 9.5331907e-001  1.8721581e-002  3.5960877e-003  1.3078904e-003  3.8265421e-003  1.0746988e-002  1.0746988e-002  1.0754310e-002 
 9.6777147e-001  1.8721581e-002  1.6532122e-003  8.8312599e-004  1.8743058e-003  1.0770570e-002  1.0770570e-002  1.0772326e-002 
 9.8127842e-001  1.8721581e-002  4.4926984e-004  4.0452584e-004  6.0455315e-004  1.0795628e-002  1.0795628e-002  1.0795810e-002 
 9.9390173e-001  1.8721581e-002 -2.2975582e-005 -2.3713497e-005  3.3018288e-005  1.0824398e-002  1.0824398e-002  1.0824399e-002 
 1.0000000e+000  1.8721581e-002  0.0000000e+000  0.0000000e+000  0.0000000e+000  1.0838297e-002  1.0838297e-002  1.0838297e-002 
 0.0000000e+000  3.2228529e-002  0.0000000e+000  0.0000000e+000  0.0000000e+000  1.7211001e-002  1.7211001e-002  1.7211001e-002 
 6.0982401e-003  3.2228529e-002  6.9132591e-005 -5.0346431e-004  5.0818856e-004  1.7226631e-002  1.7226631e-002  1.7226759e-002 
 1.8721581e-002  3.2228529e-002  9.2367490e-004 -1.7019524e-003  1.9364445e-003  1.7258983e-002  1.7258983e-002  1.7260859e-002 
 3.2228529e-002  3.2228529e-002  2.6524290e-003 -2.6754681e-003  3.7674275e-003  1.7270328e-002  1.7270328e-002  1.7277425e-002 
 4.6680957e-002  3.2228529e-002  4.9685556e-003 -3.1541134e-003  5.8851489e-003  1.7258968e-002  1.7258968e-002  1.7276285e-002 
 6.2145084e-002  3.2228529e-002  7.5133112e-003 -3.0566631e-003  8.1112906e-003  1.7219670e-002  1.7219670e-002  1.7252566e-002 
 7.8691721e-002  3.2228529e-002  9.8492485e-003 -2.4476172e-003  1.0148819e-002  1.7149039e-002  1.7149039e-002  1.7200537e-002 
 9.6396603e-002  3.2228529e-002  1.1557792e-002 -1.5443320e-003  1.1660512e-002  1.7051214e-002  1.7051214e-002  1.7119199e-002 
 1.1534080e-001  3.2228529e-002  1.2363751e-002 -6.3471042e-004  1.2380033e-002  1.6933683e-002  1.6933683e-002  1.7010316e-002 
 1.3561110e-001  3.2228529e-002  1.2208001e-002  6.1445426e-005  1.2208155e-002  1.6801815e-002  1.6801815e-002  1.6876334e-002 
 1.5730035e-001  3.2228529e-002  1.1081046e-002  5.7300617e-004  1.1095852e-002  1.6649147e-002  1.6649147e-002  1.6710706e-002 
 1.8050785e-001  3.2228529e-002  8.7706354e-003  1.1728160e-003  8.8487025e-003  1.6454676e-002  1.6454676e-002  1.6493825e-002 
 2.0533991e-001  3.2228529e-002  4.5739915e-003  2.2246067e-003  5.0862827e-003  1.6186567e-002  1.6186567e-002  1.6199501e-002 
 2.3191020e-001  3.2228529e-002 -2.9006770e-003  4.0699360e-003  4.9978304e-003  1.5801402e-002  1.5801402e-002  1.5813891e-002 
 2.6034039e-001  3.2228529e-002 -1.5632650e-002  6.8798820e-003  1.7079594e-002  1.5244777e-002  1.5244777e-002  1.5390634e-002 
 2.9076070e-001  3.2228529e-002 -3.5901237e-002  1.0681748e-002  3.7456624e-002  1.4441285e-002  1.4441285e-002  1.5142784e-002 
 3.2331041e-001  3.2228529e-002 -6.5448225e-002  1.5176557e-002  6.7184806e-002  1.3310122e-002  1.3310122e-002  1.5567021e-002 
 3.5813856e-001  3.2228529e-002 -1.0397474e-001  1.9354459e-002  1.0576078e-001  1.1807283e-002  1.1807283e-002  1.7399956e-002 
 3.9540476e-001  3.2228529e-002 -1.4707761e-001  2.1190586e-002  1.4859630e-001  1.0014425e-002  1.0014425e-002  2.1054856e-002 
 4.3527961e-001  3.2228529e-002 -1.8617308e-001  1.9091917e-002  1.8714945e-001  8.5589709e-003  8.5589709e-003  2.6071429e-002 
 4.7794560e-001  3.2228529e-002 -2.1145378e-001  1.1938916e-002  2.1179056e-001  8.6471075e-003  8.6471075e-003  3.1074727e-002 
 5.2205443e-001  3.2228529e-002 -2.1610232e-001  1.6637682e-003  2.1610872e-001  1.1295292e-002  1.1295292e-002  3.4646783e-002 
 5.6472039e-001  3.2228529e-002 -2.0165825e-001 -1.0772918e-002  2.0194580e-001  1.5805205e-002  1.5805205e-002  3.6196258e-002 
 6.0459524e-001  3.2228529e-002 -1.6657442e-001 -2.2497207e-002  1.6808677e-001  2.0407520e-002  2.0407520e-002  3.4534100e-002 
 6.4186144e-001  3.2228529e-002 -1.2112969e-001 -3.0945329e-002  1.2502006e-001  2.3598021e-002  2.3598021e-002  3.1413030e-002 
 6.7668962e-001  3.2228529e-002 -6.9350243e-002 -3.4286205e-002  7.7362783e-002  2.4055708e-002  2.4055708e-002  2.7048208e-002 
 7.0923930e-001  3.2228529e-002 -1.9114245e-002 -3.1293053e-002  3.6668919e-002  2.1911932e-002  2.1911932e-002  2.2584237e-002 
 7.3965955e-001  3.2228529e-002  2.3821255e-002 -2.0691860e-002  3.1553213e-002  1.8201139e-002  1.8201139e-002  1.8698942e-002 
 7.6808977e-001  3.2228529e-002  5.1765148e-002 -6.5251137e-003  5.2174781e-002  1.4793040e-002  1.4793040e-002  1.6154144e-002 
 7.9466009e-001  3.2228529e-002  6.1805468e-002  3.8315784e-003  6.1924122e-002  1.2658603e-002  1.2658603e-002  1.4575901e-002 
 8.1949216e-001  3.2228529e-002  6.0465466e-002  9.4049303e-003  6.1192527e-002  1.1541989e-002  1.1541989e-002  1.3414252e-002 
 8.4269965e-001  3.2228529e-002  5.2982543e-002  1.1533591e-002  5.4223366e-002  1.1032213e-002  1.1032213e-002  1.2502300e-002 
 8.6438888e-001  3.2228529e-002  4.2871274e-002  1.1348221e-002  4.4347811e-002  1.0842169e-002  1.0842169e-002  1.1825533e-002 
 8.8465917e-001  3.2228529e-002  3.2693043e-002  1.0040146e-002  3.4199994e-002  1.0774801e-002  1.0774801e-002  1.1359621e-002 
 9.0360343e-001  3.2228529e-002  2.3775384e-002  8.3571794e-003  2.5201416e-002  1.0757430e-002  1.0757430e-002  1.1074986e-002 
 9.2130828e-001  3.2228529e-002  1.6504480e-002  6.7437519e-003  1.7829079e-002  1.0760523e-002  1.0760523e-002  1.0919461e-002 
 9.3785501e-001  3.2228529e-002  1.0800903e-002  5.3621251e-003  1.2058685e-002  1.0770361e-002  1.0770361e-002  1.0843066e-002 
 9.5331907e-001  3.2228529e-002  6.4429911e-003  4.1511981e-003  7.6645012e-003  1.0783331e-002  1.0783331e-002  1.0812704e-002 
 9.6777147e-001  3.2228529e-002  3.2379956e-003  2.9607557e-003  4.3875608e-003  1.0799450e-002  1.0799450e-002  1.0809075e-002 
 9.8127842e-001  3.2228529e-002  1.0932939e-003  1.6776151e-003  2.0024194e-003  1.0822005e-002  1.0822005e-002  1.0824010e-002 
 9.9390173e-001  3.2228529e-002  7.5612639e-005  4.0269905e-004  4.0973624e-004  1.0861352e-002  1.0861352e-002  1.0861436e-002 
 1.0000000e+000  3.2228529e-002  0.0000000e+000  0.0000000e+000  0.0000000e+000  1.0880360e-002  1.0880360e-002  1.0880360e-002 
 0.0000000e+000  4.6680957e-002  0.0000000e+000  0.0000000e+000  0.0000000e+000  1.7200967e-002  1.7200967e-002  1.7200967e-002 
 6.0982401e-003  4.6680957e-002  9.9732344e-005 -1.1458517e-003  1.1501837e-003  1.7220823e-002  1.7220823e-002  1.7221484e-002 
 1.8721581e-002  4.6680957e-002  1.2021186e-003 -3.3658782e-003  3.5741047e-003  1.7261926e-002  1.7261926e-002  1.7268313e-002 
 3.2228529e-002  4.6680957e-002  3.3357104e-003 -5.0242282e-003  6.0307407e-003  1.7274927e-002  1.7274927e-002  1.7293112e-002 
 4.6680957e-002  4.6680957e-002  6.0667787e-003 -5.7593989e-003  8.3651943e-003  1.7260365e-002  1.7260365e-002  1.7295353e-002 
 6.2145084e-002  4.6680957e-002  8.9189392e-003 -5.4714018e-003  1.0463446e-002  1.7215755e-002  1.7215755e-002  1.7270496e-002 
 7.8691721e-002  4.6680957e-002  1.1361671e-002 -4.2739320e-003  1.2138948e-002  1.7140383e-002  1.7140383e-002  1.7214060e-002 
 9.6396603e-002  4.6680957e-002  1.2909639e-002 -2.5405784e-003  1.3157253e-002  1.7041989e-002  1.7041989e-002  1.7128546e-002 
 1.1534080e-001  4.6680957e-002  1.3220537e-002 -7.4089144e-004  1.3241282e-002  1.6930729e-002  1.6930729e-002  1.7018395e-002 
 1.3561110e-001  4.6680957e-002  1.2116733e-002  8.0400001e-004  1.2143378e-002  1.6812228e-002  1.6812228e-002  1.6885959e-002 
 1.5730035e-001  4.6680957e-002  9.3314117e-003  2.1980435e-003  9.5867952e-003  1.6678603e-002  1.6678603e-002  1.6724557e-002 
 1.8050785e-001  4.6680957e-002  4.2392374e-003  3.9629033e-003  5.8030798e-003  1.6505472e-002  1.6505472e-002  1.6522311e-002 
 2.0533991e-001  4.6680957e-002 -4.4745058e-003  6.8041808e-003  8.1435917e-003  1.6262341e-002  1.6262341e-002  1.6295500e-002 
 2.3191020e-001  4.6680957e-002 -1.8858198e-002  1.1257456e-002  2.1962740e-002  1.5898537e-002  1.5898537e-002  1.6139718e-002 
 2.6034039e-001  4.6680957e-002 -4.1445579e-002  1.7504821e-002  4.4990607e-002  1.5351451e-002  1.5351451e-002  1.6363528e-002 
 2.9076070e-001  4.6680957e-002 -7.4257277e-002  2.5193892e-002  7.8414768e-002  1.4523454e-002  1.4523454e-002  1.7597891e-002 
 3.2331041e-001  4.6680957e-002 -1.1724719e-001  3.2866567e-002  1.2176664e-001  1.3279528e-002  1.3279528e-002  2.0693086e-002 
 3.5813856e-001  4.6680957e-002 -1.6594720e-001  3.7792485e-002  1.7019619e-001  1.1505691e-002  1.1505691e-002  2.5989063e-002 
 3.9540476e-001  4.6680957e-002 -2.1205480e-001  3.7394118e-002  2.1532664e-001  9.3827508e-003  9.3827508e-003  3.2565530e-002 
 4.3527961e-001  4.6680957e-002 -2.4769449e-001  2.9952757e-002  2.4949896e-001  7.6550199e-003  7.6550199e-003  3.8779885e-002 
 4.7794560e-001  4.6680957e-002 -2.6710856e-001  1.6165368e-002  2.6759729e-001  7.5926180e-003  7.5926180e-003  4.3396767e-002 
 5.2205443e-001  4.6680957e-002 -2.6867482e-001 -9.6793089e-004  2.6867658e-001  1.0113200e-002  1.0113200e-002  4.6206750e-002 
 5.6472039e-001  4.6680957e-002 -2.5032631e-001 -2.0383053e-002  2.5115478e-001  1.4464209e-002  1.4464209e-002  4.6003573e-002 
 6.0459524e-001  4.6680957e-002 -2.1652064e-001 -3.8157653e-002  2.1985722e-001  1.9094322e-002  1.9094322e-002  4.3262918e-002 
 6.4186144e-001  4.6680957e-002 -1.7122163e-001 -5.1286977e-002  1.7873780e-001  2.2393694e-002  2.2393694e-002  3.8367294e-002 
 6.7668962e-001  4.6680957e-002 -1.1905155e-001 -5.7340793e-002  1.3214098e-001  2.3055915e-002  2.3055915e-002  3.1786535e-002 
 7.0923930e-001  4.6680957e-002 -6.5466195e-002 -5.4451313e-002  8.5151441e-002  2.1033520e-002  2.1033520e-002  2.4658903e-002 
 7.3965955e-001  4.6680957e-002 -1.6216271e-002 -4.0520627e-002  4.3645032e-002  1.7459149e-002  1.7459149e-002  1.8411594e-002 
 7.6808977e-001  4.6680957e-002  2.2746572e-002 -1.9015649e-002  2.9647959e-002  1.4112175e-002  1.4112175e-002  1.4551676e-002 
 7.9466009e-001  4.6680957e-002  4.4284761e-002 -1.2904565e-003  4.4303559e-002  1.2097639e-002  1.2097639e-002  1.3079042e-002 
 8.1949216e-001  4.6680957e-002  5.2443545e-002  9.9686626e-003  5.3382579e-002  1.1120745e-002  1.1120745e-002  1.2545595e-002 
 8.4269965e-001  4.6680957e-002  5.1546331e-002  1.6005585e-002  5.3974096e-002  1.0739784e-002  1.0739784e-002  1.2196385e-002 
 8.6438888e-001  4.6680957e-002  4.5438923e-002  1.7837653e-002  4.8814729e-002  1.0656804e-002  1.0656804e-002  1.1848243e-002 
 8.8465917e-001  4.6680957e-002  3.7086964e-002  1.7179428e-002  4.0872674e-002  1.0678903e-002  1.0678903e-002  1.1514191e-002 
 9.0360343e-001  4.6680957e-002  2.8533069e-002  1.5183065e-002  3.2321222e-002  1.0717537e-002  1.0717537e-002  1.1239868e-002 
 9.2130828e-001  4.6680957e-002  2.0705745e-002  1.2821014e-002  2.4353772e-002  1.0752528e-002  1.0752528e-002  1.1049081e-002 
 9.3785501e-001  4.6680957e-002  1.4069653e-002  1.0543374e-002  1.7581748e-002  1.0777425e-002  1.0777425e-002  1.0931984e-002 
 9.5331907e-001  4.6680957e-002  8.7064384e-003  8.4052980e-003  1.2101699e-002  1.0795319e-002  1.0795319e-002  1.0868544e-002 
 9.6777147e-001  4.6680957e-002  4.5655328e-003  6.2436732e-003  7.7348268e-003  1.0811718e-002  1.0811718e-002  1.0841632e-002 
 9.8127842e-001  4.6680957e-002  1.6446474e-003  3.8638890e-003  4.1993456e-003  1.0836388e-002  1.0836388e-002  1.0845205e-002 
 9.9390173e-001  4.6680957e-002  1.5439576e-004  1.2543455e-003  1.2638120e-003  1.0887885e-002  1.0887885e-002  1.0888684e-002 
 1.0000000e+000  4.6680957e-002  0.0000000e+000  0.0000000e+000  0.0000000e+000  1.0912762e-002  1.0912762e-002  1.0912762e-002 
 0.0000000e+000  6.2145084e-002  0.0000000e+000  0.0000000e+000  0.0000000e+000  1.7213488e-002  1.7213488e-002  1.7213488e-002 
 6.0982401e-003  6.2145084e-002  1.2224048e-004 -1.9796586e-003  1.9834291e-003  1.7236302e-002  1.7236302e-002  1.7238269e-002 
 1.8721581e-002  6.2145084e-002  1.3995764e-003 -5.4721939e-003  5.6483378e-003  1.7283525e-002  1.7283525e-002  1.7299477e-002 
 3.2228529e-002  6.2145084e-002  3.7849112e-003 -7.8780381e-003  8.7400824e-003  1.7295618e-002  1.7295618e-002  1.7333813e-002 
 4.6680957e-002  6.2145084e-002  6.6793403e-003 -8.7632518e-003  1.1018538e-002  1.7273951e-002  1.7273951e-002  1.7334655e-002 
 6.2145084e-002  6.2145084e-002  9.4642276e-003 -8.0561377e-003  1.2428715e-002  1.7218780e-002  1.7218780e-002  1.7296016e-002 
 7.8691721e-002  6.2145084e-002  1.1530661e-002 -5.9774849e-003  1.2987936e-002  1.7134326e-002  1.7134326e-002  1.7218668e-002 
 9.6396603e-002  6.2145084e-002  1.2337606e-002 -3.0907623e-003  1.2718858e-002  1.7033491e-002  1.7033491e-002  1.7114377e-002 
 1.1534080e-001  6.2145084e-002  1.1504598e-002 -3.3650984e-005  1.1504647e-002  1.6929980e-002  1.6929980e-002  1.6996158e-002 
 1.3561110e-001  6.2145084e-002  8.6275069e-003  2.8552802e-003  9.0877116e-003  1.6829092e-002  1.6829092e-002  1.6870385e-002 
 1.5730035e-001  6.2145084e-002  3.0975528e-003  5.8536716e-003  6.6227112e-003  1.6718965e-002  1.6718965e-002  1.6740896e-002 
 1.8050785e-001  6.2145084e-002 -6.3111940e-003  9.8227002e-003  1.1675471e-002  1.6570469e-002  1.6570469e-002  1.6638627e-002 
 2.0533991e-001  6.2145084e-002 -2.1554003e-002  1.5792860e-002  2.6720582e-002  1.6342619e-002  1.6342619e-002  1.6699614e-002 
 2.3191020e-001  6.2145084e-002 -4.5144986e-002  2.4322448e-002  5.1280126e-002  1.5973359e-002  1.5973359e-002  1.7288186e-002 
 2.6034039e-001  6.2145084e-002 -7.9191238e-002  3.5237506e-002  8.6677179e-002  1.5371837e-002  1.5371837e-002  1.9128304e-002 
 2.9076070e-001  6.2145084e-002 -1.2386223e-001  4.6873849e-002  1.3243492e-001  1.4375807e-002  1.4375807e-002  2.3145312e-002 
 3.2331041e-001  6.2145084e-002 -1.7512095e-001  5.5844605e-002  1.8380959e-001  1.2774929e-002  1.2774929e-002  2.9667912e-002 
 3.5813856e-001  6.2145084e-002 -2.2498181e-001  5.8310747e-002  2.3241550e-001  1.0446345e-002  1.0446345e-002  3.7454825e-002 
 3.9540476e-001  6.2145084e-002 -2.6660195e-001  5.2930586e-002  2.7180552e-001  7.9665454e-003  7.9665454e-003  4.4905670e-002 