Variables = "x","y", "Velocity_x", "Velocity_y", "Velocity_whole value", "Pressure", "Temperature", "Absolute pressure", "Total pressure"
Zone i=62, j=22
 0.0000000e+000  0.0000000e+000  0.0000000e+000  0.0000000e+000  0.0000000e+000  3.6269214e+000  1.0000000e+000  3.6269214e+000  3.6269214e+000 
 1.2291715e-002  0.0000000e+000  0.0000000e+000  0.0000000e+000  0.0000000e+000  3.4057536e+000  1.0000000e+000  3.4057536e+000  3.4057536e+000 
 3.7736509e-002  0.0000000e+000  0.0000000e+000  0.0000000e+000  0.0000000e+000  2.9479191e+000  1.0000000e+000  2.9479191e+000  2.9479191e+000 
 6.4963534e-002  0.0000000e+000  0.0000000e+000  0.0000000e+000  0.0000000e+000  2.6492136e+000  1.0000000e+000  2.6492136e+000  2.6492136e+000 
 9.4095588e-002  0.0000000e+000  0.0000000e+000  0.0000000e+000  0.0000000e+000  2.4624500e+000  1.0000000e+000  2.4624500e+000  2.4624500e+000 
 1.2526625e-001  0.0000000e+000  0.0000000e+000  0.0000000e+000  0.0000000e+000  2.3509114e+000  1.0000000e+000  2.3509114e+000  2.3509114e+000 
 1.5861896e-001  0.0000000e+000  0.0000000e+000  0.0000000e+000  0.0000000e+000  2.2903314e+000  1.0000000e+000  2.2903314e+000  2.2903314e+000 
 1.9430619e-001  0.0000000e+000  0.0000000e+000  0.0000000e+000  0.0000000e+000  2.2585130e+000  1.0000000e+000  2.2585130e+000  2.2585130e+000 
 2.3249130e-001  0.0000000e+000  0.0000000e+000  0.0000000e+000  0.0000000e+000  2.2396743e+000  1.0000000e+000  2.2396743e+000  2.2396743e+000 
 2.7334976e-001  0.0000000e+000  0.0000000e+000  0.0000000e+000  0.0000000e+000  2.2254274e+000  1.0000000e+000  2.2254274e+000  2.2254274e+000 
 3.1706923e-001  0.0000000e+000  0.0000000e+000  0.0000000e+000  0.0000000e+000  2.2123866e+000  1.0000000e+000  2.2123866e+000  2.2123866e+000 
 3.6384889e-001  0.0000000e+000  0.0000000e+000  0.0000000e+000  0.0000000e+000  2.1995351e+000  1.0000000e+000  2.1995351e+000  2.1995351e+000 
 4.1390228e-001  0.0000000e+000  0.0000000e+000  0.0000000e+000  0.0000000e+000  2.1866865e+000  1.0000000e+000  2.1866865e+000  2.1866865e+000 
 4.6745992e-001  0.0000000e+000  0.0000000e+000  0.0000000e+000  0.0000000e+000  2.1737866e+000  1.0000000e+000  2.1737866e+000  2.1737866e+000 
 5.2476656e-001  0.0000000e+000  0.0000000e+000  0.0000000e+000  0.0000000e+000  2.1607323e+000  1.0000000e+000  2.1607323e+000  2.1607323e+000 
 5.8608472e-001  0.0000000e+000  0.0000000e+000  0.0000000e+000  0.0000000e+000  2.1474161e+000  1.0000000e+000  2.1474161e+000  2.1474161e+000 
 6.5169525e-001  0.0000000e+000  0.0000000e+000  0.0000000e+000  0.0000000e+000  2.1337278e+000  1.0000000e+000  2.1337278e+000  2.1337278e+000 
 7.2189790e-001  0.0000000e+000  0.0000000e+000  0.0000000e+000  0.0000000e+000  2.1195817e+000  1.0000000e+000  2.1195817e+000  2.1195817e+000 
 7.9701531e-001  0.0000000e+000  0.0000000e+000  0.0000000e+000  0.0000000e+000  2.1048913e+000  1.0000000e+000  2.1048913e+000  2.1048913e+000 
 8.7739104e-001  0.0000000e+000  0.0000000e+000  0.0000000e+000  0.0000000e+000  2.0896025e+000  1.0000000e+000  2.0896025e+000  2.0896025e+000 
 9.6339333e-001  0.0000000e+000  0.0000000e+000  0.0000000e+000  0.0000000e+000  2.0736692e+000  1.0000000e+000  2.0736692e+000  2.0736692e+000 
 1.0554160e+000  0.0000000e+000  0.0000000e+000  0.0000000e+000  0.0000000e+000  2.0570590e+000  1.0000000e+000  2.0570590e+000  2.0570590e+000 
 1.1538795e+000  0.0000000e+000  0.0000000e+000  0.0000000e+000  0.0000000e+000  2.0397475e+000  1.0000000e+000  2.0397475e+000  2.0397475e+000 
 1.2592361e+000  0.0000000e+000  0.0000000e+000  0.0000000e+000  0.0000000e+000  2.0217080e+000  1.0000000e+000  2.0217080e+000  2.0217080e+000 
 1.3719671e+000  0.0000000e+000  0.0000000e+000  0.0000000e+000  0.0000000e+000  2.0029304e+000  1.0000000e+000  2.0029304e+000  2.0029304e+000 
 1.4925885e+000  0.0000000e+000  0.0000000e+000  0.0000000e+000  0.0000000e+000  1.9833980e+000  1.0000000e+000  1.9833980e+000  1.9833980e+000 
 1.6216545e+000  0.0000000e+000  0.0000000e+000  0.0000000e+000  0.0000000e+000  1.9630876e+000  1.0000000e+000  1.9630876e+000  1.9630876e+000 
 1.7597550e+000  0.0000000e+000  0.0000000e+000  0.0000000e+000  0.0000000e+000  1.9419745e+000  1.0000000e+000  1.9419745e+000  1.9419745e+000 
 1.9075224e+000  0.0000000e+000  0.0000000e+000  0.0000000e+000  0.0000000e+000  1.9200290e+000  1.0000000e+000  1.9200290e+000  1.9200290e+000 
 2.0656340e+000  0.0000000e+000  0.0000000e+000  0.0000000e+000  0.0000000e+000  1.8972145e+000  1.0000000e+000  1.8972145e+000  1.8972145e+000 
 2.2348135e+000  0.0000000e+000  0.0000000e+000  0.0000000e+000  0.0000000e+000  1.8734884e+000  1.0000000e+000  1.8734884e+000  1.8734884e+000 
 2.4158354e+000  0.0000000e+000  0.0000000e+000  0.0000000e+000  0.0000000e+000  1.8488034e+000  1.0000000e+000  1.8488034e+000  1.8488034e+000 
 2.6095285e+000  0.0000000e+000  0.0000000e+000  0.0000000e+000  0.0000000e+000  1.8231046e+000  1.0000000e+000  1.8231046e+000  1.8231046e+000 
 2.8167806e+000  0.0000000e+000  0.0000000e+000  0.0000000e+000  0.0000000e+000  1.7963293e+000  1.0000000e+000  1.7963293e+000  1.7963293e+000 
 3.0385399e+000  0.0000000e+000  0.0000000e+000  0.0000000e+000  0.0000000e+000  1.7684071e+000  1.0000000e+000  1.7684071e+000  1.7684071e+000 
 3.2758224e+000  0.0000000e+000  0.0000000e+000  0.0000000e+000  0.0000000e+000  1.7392570e+000  1.0000000e+000  1.7392570e+000  1.7392570e+000 
 3.5297146e+000  0.0000000e+000  0.0000000e+000  0.0000000e+000  0.0000000e+000  1.7087876e+000  1.0000000e+000  1.7087876e+000  1.7087876e+000 
 3.8013785e+000  0.0000000e+000  0.0000000e+000  0.0000000e+000  0.0000000e+000  1.6768943e+000  1.0000000e+000  1.6768943e+000  1.6768943e+000 
 4.0920601e+000  0.0000000e+000  0.0000000e+000  0.0000000e+000  0.0000000e+000  1.6434596e+000  1.0000000e+000  1.6434596e+000  1.6434596e+000 
 4.4030900e+000  0.0000000e+000  0.0000000e+000  0.0000000e+000  0.0000000e+000  1.6083494e+000  1.0000000e+000  1.6083494e+000  1.6083494e+000 
 4.7358913e+000  0.0000000e+000  0.0000000e+000  0.0000000e+000  0.0000000e+000  1.5714158e+000  1.0000000e+000  1.5714158e+000  1.5714158e+000 
 5.0919890e+000  0.0000000e+000  0.0000000e+000  0.0000000e+000  0.0000000e+000  1.5324916e+000  1.0000000e+000  1.5324916e+000  1.5324916e+000 
 5.4730139e+000  0.0000000e+000  0.0000000e+000  0.0000000e+000  0.0000000e+000  1.4913937e+000  1.0000000e+000  1.4913937e+000  1.4913937e+000 
 5.8807087e+000  0.0000000e+000  0.0000000e+000  0.0000000e+000  0.0000000e+000  1.4479208e+000  1.0000000e+000  1.4479208e+000  1.4479208e+000 
 6.3169422e+000  0.0000000e+000  0.0000000e+000  0.0000000e+000  0.0000000e+000  1.4018538e+000  1.0000000e+000  1.4018538e+000  1.4018538e+000 
 6.7837143e+000  0.0000000e+000  0.0000000e+000  0.0000000e+000  0.0000000e+000  1.3529570e+000  1.0000000e+000  1.3529570e+000  1.3529570e+000 
 7.2831593e+000  0.0000000e+000  0.0000000e+000  0.0000000e+000  0.0000000e+000  1.3009777e+000  1.0000000e+000  1.3009777e+000  1.3009777e+000 
 7.8175659e+000  0.0000000e+000  0.0000000e+000  0.0000000e+000  0.0000000e+000  1.2456478e+000  1.0000000e+000  1.2456478e+000  1.2456478e+000 
 8.3893795e+000  0.0000000e+000  0.0000000e+000  0.0000000e+000  0.0000000e+000  1.1866827e+000  1.0000000e+000  1.1866827e+000  1.1866827e+000 
 9.0012217e+000  0.0000000e+000  0.0000000e+000  0.0000000e+000  0.0000000e+000  1.1237818e+000  1.0000000e+000  1.1237818e+000  1.1237818e+000 
 9.6558924e+000  0.0000000e+000  0.0000000e+000  0.0000000e+000  0.0000000e+000  1.0566291e+000  1.0000000e+000  1.0566291e+000  1.0566291e+000 
 1.0356388e+001  0.0000000e+000  0.0000000e+000  0.0000000e+000  0.0000000e+000  9.8489171e-001  1.0000000e+000  9.8489171e-001  9.8489171e-001 
 1.1105920e+001  0.0000000e+000  0.0000000e+000  0.0000000e+000  0.0000000e+000  9.0821934e-001  1.0000000e+000  9.0821934e-001  9.0821934e-001 
 1.1907920e+001  0.0000000e+000  0.0000000e+000  0.0000000e+000  0.0000000e+000  8.2624263e-001  1.0000000e+000  8.2624263e-001  8.2624263e-001 
 1.2766060e+001  0.0000000e+000  0.0000000e+000  0.0000000e+000  0.0000000e+000  7.3857194e-001  1.0000000e+000  7.3857194e-001  7.3857194e-001 
 1.3684270e+001  0.0000000e+000  0.0000000e+000  0.0000000e+000  0.0000000e+000  6.4479423e-001  1.0000000e+000  6.4479423e-001  6.4479423e-001 
 1.4666756e+001  0.0000000e+000  0.0000000e+000  0.0000000e+000  0.0000000e+000  5.4447204e-001  1.0000000e+000  5.4447204e-001  5.4447204e-001 
 1.5718015e+001  0.0000000e+000  0.0000000e+000  0.0000000e+000  0.0000000e+000  4.3713966e-001  1.0000000e+000  4.3713966e-001  4.3713966e-001 
 1.6842865e+001  0.0000000e+000  0.0000000e+000  0.0000000e+000  0.0000000e+000  3.2230142e-001  1.0000000e+000  3.2230142e-001  3.2230142e-001 
 1.8046452e+001  0.0000000e+000  0.0000000e+000  0.0000000e+000  0.0000000e+000  1.9942948e-001  1.0000000e+000  1.9942948e-001  1.9942948e-001 
 1.9334295e+001  0.0000000e+000  0.0000000e+000  0.0000000e+000  0.0000000e+000  6.7958511e-002  1.0000000e+000  6.7958511e-002  6.7958511e-002 
 2.0000000e+001  0.0000000e+000  0.0000000e+000  0.0000000e+000  0.0000000e+000 -6.5293051e-007  1.0000000e+000 -6.5293051e-007 -6.5293051e-007 
 0.0000000e+000  1.5686335e-002  1.0000000e+000  0.0000000e+000  1.0000000e+000  3.3748605e+000  0.0000000e+000  3.3748605e+000  3.8748605e+000 
 1.2291715e-002  1.5686335e-002  9.3389517e-001  1.7711633e-001  9.5054215e-001  3.2046666e+000  2.5560752e-001  3.2046666e+000  3.6564319e+000 
 3.7736509e-002  1.5686335e-002  7.8951126e-001  1.5889181e-001  8.0534130e-001  2.8523521e+000  5.4763782e-001  2.8523521e+000  3.1766396e+000 
 6.4963534e-002  1.5686335e-002  6.3162637e-001  1.0744753e-001  6.4070028e-001  2.6131213e+000  7.0082796e-001  2.6131213e+000  2.8183696e+000 
 9.4095588e-002  1.5686335e-002  4.9740326e-001  6.1665155e-002  5.0121111e-001  2.4581225e+000  7.7800822e-001  2.4581225e+000  2.5837288e+000 
 1.2526625e-001  1.5686335e-002  3.9805746e-001  3.0965012e-002  3.9926004e-001  2.3610187e+000  8.1833363e-001  2.3610187e+000  2.4407229e+000 
 1.5861896e-001  1.5686335e-002  3.2917646e-001  1.3359372e-002  3.2944745e-001  2.3042171e+000  8.4240025e-001  2.3042171e+000  2.3584850e+000 
 1.9430619e-001  1.5686335e-002  2.8254721e-001  4.8861513e-003  2.8258947e-001  2.2711210e+000  8.5921264e-001  2.2711210e+000  2.3110495e+000 
 2.3249130e-001  1.5686335e-002  2.5032923e-001  1.5637265e-003  2.5033411e-001  2.2494953e+000  8.7224644e-001  2.2494953e+000  2.2808290e+000 
 2.7334976e-001  1.5686335e-002  2.2675565e-001  5.6360383e-004  2.2675635e-001  2.2326071e+000  8.8287246e-001  2.2326071e+000  2.2583163e+000 
 3.1706923e-001  1.5686335e-002  2.0839308e-001  3.6541215e-004  2.0839339e-001  2.2175605e+000  8.9174283e-001  2.2175605e+000  2.2392745e+000 
 3.6384889e-001  1.5686335e-002  1.9343694e-001  3.5575335e-004  1.9343726e-001  2.2033055e+000  8.9926106e-001  2.2033055e+000  2.2220144e+000 
 4.1390228e-001  1.5686335e-002  1.8095621e-001  3.4509395e-004  1.8095654e-001  2.1894925e+000  9.0571237e-001  2.1894925e+000  2.2058651e+000 
 4.6745992e-001  1.5686335e-002  1.7043504e-001  3.1118185e-004  1.7043532e-001  2.1759176e+000  9.1130930e-001  2.1759176e+000  2.1904416e+000 
 5.2476656e-001  1.5686335e-002  1.6151388e-001  2.7111502e-004  1.6151410e-001  2.1623764e+000  9.1621530e-001  2.1623764e+000  2.1754198e+000 
 5.8608472e-001  1.5686335e-002  1.5390569e-001  2.3211948e-004  1.5390587e-001  2.1487005e+000  9.2055494e-001  2.1487005e+000  2.1605439e+000 
 6.5169525e-001  1.5686335e-002  1.4737618e-001  1.9882656e-004  1.4737631e-001  2.1347420e+000  9.2442638e-001  2.1347420e+000  2.1456020e+000 
 7.2189790e-001  1.5686335e-002  1.4173768e-001  1.6955390e-004  1.4173779e-001  2.1203899e+000  9.2790598e-001  2.1203899e+000  2.1304348e+000 
 7.9701531e-001  1.5686335e-002  1.3683374e-001  1.4623774e-004  1.3683382e-001  2.1055417e+000  9.3105674e-001  2.1055417e+000  2.1149035e+000 
 8.7739104e-001  1.5686335e-002  1.3253170e-001  1.2687013e-004  1.3253176e-001  2.0901308e+000  9.3392897e-001  2.0901308e+000  2.0989132e+000 
 9.6339333e-001  1.5686335e-002  1.2872550e-001  1.1099025e-004  1.2872554e-001  2.0741024e+000  9.3656373e-001  2.0741024e+000  2.0823874e+000 
 1.0554160e+000  1.5686335e-002  1.2532811e-001  9.7779142e-005  1.2532815e-001  2.0574174e+000  9.3899453e-001  2.0574174e+000  2.0652709e+000 
 1.1538795e+000  1.5686335e-002  1.2227137e-001  8.6340595e-005  1.2227140e-001  2.0400467e+000  9.4124848e-001  2.0400467e+000  2.0475218e+000 
 1.2592361e+000  1.5686335e-002  1.1949624e-001  7.7018791e-005  1.1949626e-001  2.0219603e+000  9.4334942e-001  2.0219603e+000  2.0290999e+000 
 1.3719671e+000  1.5686335e-002  1.1695480e-001  6.8609166e-005  1.1695483e-001  2.0031445e+000  9.4531602e-001  2.0031445e+000  2.0099838e+000 
 1.4925885e+000  1.5686335e-002  1.1461558e-001  6.1105413e-005  1.1461560e-001  1.9835808e+000  9.4716322e-001  1.9835808e+000  1.9901491e+000 
 1.6216545e+000  1.5686335e-002  1.1245373e-001  5.4445500e-005  1.1245374e-001  1.9632446e+000  9.4890374e-001  1.9632446e+000  1.9695675e+000 
 1.7597550e+000  1.5686335e-002  1.1044959e-001  4.8257640e-005  1.1044960e-001  1.9421099e+000  9.5054847e-001  1.9421099e+000  1.9482095e+000 
 1.9075224e+000  1.5686335e-002  1.0858864e-001  4.2716198e-005  1.0858865e-001  1.9201459e+000  9.5210677e-001  1.9201459e+000  1.9260416e+000 
 2.0656340e+000  1.5686335e-002  1.0685982e-001  3.7767088e-005  1.0685983e-001  1.8973154e+000  9.5358711e-001  1.8973154e+000  1.9030249e+000 
 2.2348135e+000  1.5686335e-002  1.0525373e-001  3.3265354e-005  1.0525373e-001  1.8735754e+000  9.5499736e-001  1.8735754e+000  1.8791146e+000 
 2.4158354e+000  1.5686335e-002  1.0376313e-001  2.9170706e-005  1.0376314e-001  1.8488785e+000  9.5634520e-001  1.8488785e+000  1.8542619e+000 
 2.6095285e+000  1.5686335e-002  1.0238280e-001  2.5552574e-005  1.0238280e-001  1.8231692e+000  9.5763761e-001  1.8231692e+000  1.8284104e+000 
 2.8167806e+000  1.5686335e-002  1.0110836e-001  2.2205697e-005  1.0110836e-001  1.7963849e+000  9.5888239e-001  1.7963849e+000  1.8014964e+000 
 3.0385399e+000  1.5686335e-002  9.9936552e-002  1.9239980e-005  9.9936552e-002  1.7684547e+000  9.6008635e-001  1.7684547e+000  1.7734483e+000 
 3.2758224e+000  1.5686335e-002  9.8864637e-002  1.6440865e-005  9.8864637e-002  1.7392975e+000  9.6125782e-001  1.7392975e+000  1.7441846e+000 
 3.5297146e+000  1.5686335e-002  9.7890377e-002  1.4069064e-005  9.7890377e-002  1.7088218e+000  9.6240342e-001  1.7088218e+000  1.7136130e+000 
 3.8013785e+000  1.5686335e-002  9.7011410e-002  1.1922491e-005  9.7011410e-002  1.6769229e+000  9.6353221e-001  1.6769229e+000  1.6816285e+000 
 4.0920601e+000  1.5686335e-002  9.6225463e-002  9.9610643e-006  9.6225463e-002  1.6434832e+000  9.6464986e-001  1.6434832e+000  1.6481128e+000 
 4.4030900e+000  1.5686335e-002  9.5529720e-002  8.2078741e-006  9.5529720e-002  1.6083689e+000  9.6576595e-001  1.6083689e+000  1.6129318e+000 
 4.7358913e+000  1.5686335e-002  9.4920769e-002  6.7433189e-006  9.4920769e-002  1.5714316e+000  9.6688402e-001  1.5714316e+000  1.5759366e+000 
 5.0919890e+000  1.5686335e-002  9.4394594e-002  5.4245197e-006  9.4394594e-002  1.5325043e+000  9.6801376e-001  1.5325043e+000  1.5369595e+000 
 5.4730139e+000  1.5686335e-002  9.3946159e-002  4.2557258e-006  9.3946159e-002  1.4914038e+000  9.6915525e-001  1.4914038e+000  1.4958167e+000 
 5.8807087e+000  1.5686335e-002  9.3569756e-002  3.3949889e-006  9.3569756e-002  1.4479285e+000  9.7031844e-001  1.4479285e+000  1.4523062e+000 
 6.3169422e+000  1.5686335e-002  9.3259022e-002  2.5827890e-006  9.3259022e-002  1.4018598e+000  9.7149831e-001  1.4018598e+000  1.4062084e+000 
 6.7837143e+000  1.5686335e-002  9.3007013e-002  1.9511272e-006  9.3007013e-002  1.3529613e+000  9.7270572e-001  1.3529613e+000  1.3572865e+000 
 7.2831593e+000  1.5686335e-002  9.2806436e-002  1.4157656e-006  9.2806436e-002  1.3009810e+000  9.7392911e-001  1.3009810e+000  1.3052876e+000 
 7.8175659e+000  1.5686335e-002  9.2650041e-002  1.0669280e-006  9.2650041e-002  1.2456502e+000  9.7518176e-001  1.2456502e+000  1.2499422e+000 
 8.3893795e+000  1.5686335e-002  9.2530705e-002  7.3517919e-007  9.2530705e-002  1.1866844e+000  9.7644407e-001  1.1866844e+000  1.1909653e+000 
 9.0012217e+000  1.5686335e-002  9.2441753e-002  4.6011343e-007  9.2441753e-002  1.1237830e+000  9.7773409e-001  1.1237830e+000  1.1280557e+000 
 9.6558924e+000  1.5686335e-002  9.2377059e-002  3.3129490e-007  9.2377059e-002  1.0566299e+000  9.7902197e-001  1.0566299e+000  1.0608966e+000 
 1.0356388e+001  1.5686335e-002  9.2331223e-002  2.4414700e-007  9.2331223e-002  9.8489225e-001  9.8033410e-001  9.8489225e-001  9.8915476e-001 
 1.1105920e+001  1.5686335e-002  9.2299610e-002  1.3026815e-007  9.2299610e-002  9.0821970e-001  9.8162729e-001  9.0821970e-001  9.1247928e-001 
 1.1907920e+001  1.5686335e-002  9.2278428e-002  1.0387775e-007  9.2278428e-002  8.2624280e-001  9.8294127e-001  8.2624280e-001  8.3050048e-001 
 1.2766060e+001  1.5686335e-002  9.2264690e-002  4.5864599e-008  9.2264690e-002  7.3857206e-001  9.8421407e-001  7.3857206e-001  7.4282843e-001 
 1.3684270e+001  1.5686335e-002  9.2256062e-002  3.0830684e-008  9.2256062e-002  6.4479429e-001  9.8550647e-001  6.4479429e-001  6.4904988e-001 
 1.4666756e+001  1.5686335e-002  9.2250802e-002  2.8909511e-008  9.2250802e-002  5.4447204e-001  9.8672950e-001  5.4447204e-001  5.4872715e-001 
 1.5718015e+001  1.5686335e-002  9.2247747e-002  1.6073798e-008  9.2247747e-002  4.3713966e-001  9.8797613e-001  4.3713966e-001  4.4139448e-001 
 1.6842865e+001  1.5686335e-002  9.2246026e-002  1.7885311e-008  9.2246026e-002  3.2230142e-001  9.8911715e-001  3.2230142e-001  3.2655609e-001 
 1.8046452e+001  1.5686335e-002  9.2245094e-002 -7.5210425e-009  9.2245094e-002  1.9942951e-001  9.9029601e-001  1.9942951e-001  2.0368409e-001 
 1.9334295e+001  1.5686335e-002  9.2244528e-002 -4.0946045e-008  9.2244528e-002  6.7958407e-002  9.9132079e-001  6.7958407e-002  7.2212934e-002 
 2.0000000e+001  1.5686335e-002  9.2244521e-002 -4.3302734e-008  9.2244521e-002  0.0000000e+000  9.9185050e-001  0.0000000e+000  4.2545260e-003 
 0.0000000e+000  4.8627645e-002  1.0000000e+000  0.0000000e+000  1.0000000e+000  2.8455324e+000  0.0000000e+000  2.8455324e+000  3.3455324e+000 
 1.2291715e-002  4.8627645e-002  1.0361192e+000  1.2552482e-001  1.0436951e+000  2.7823839e+000  3.5805039e-002  2.7823839e+000  3.3270338e+000 
 3.7736509e-002  4.8627645e-002  1.0746231e+000  2.1820687e-001  1.0965532e+000  2.6516616e+000  1.4401680e-001  2.6516616e+000  3.2528763e+000 
 6.4963534e-002  4.8627645e-002  1.0654187e+000  2.1928866e-001  1.0877521e+000  2.5373275e+000  2.6134551e-001  2.5373275e+000  3.1289299e+000 
 9.4095588e-002  4.8627645e-002  1.0183498e+000  1.8738376e-001  1.0354463e+000  2.4490347e+000  3.6453834e-001  2.4490347e+000  2.9851091e+000 
 1.2526625e-001  4.8627645e-002  9.4902152e-001  1.4163277e-001  9.5953202e-001  2.3822441e+000  4.4803396e-001  2.3822441e+000  2.8425949e+000 
 1.5861896e-001  4.8627645e-002  8.7069315e-001  9.9595748e-002  8.7637085e-001  2.3333771e+000  5.1333493e-001  2.3333771e+000  2.7173901e+000 
 1.9430619e-001  4.8627645e-002  7.9390585e-001  6.8238370e-002  7.9683310e-001  2.2975979e+000  5.6429684e-001  2.2975979e+000  2.6150694e+000 
 2.3249130e-001  4.8627645e-002  7.2468436e-001  4.7293238e-002  7.2622591e-001  2.2701194e+000  6.0475880e-001  2.2701194e+000  2.5338213e+000 
 2.7334976e-001  4.8627645e-002  6.6491872e-001  3.3823431e-002  6.6577846e-001  2.2476845e+000  6.3767087e-001  2.2476845e+000  2.4693151e+000 
 3.1706923e-001  4.8627645e-002  6.1434793e-001  2.5010241e-002  6.1485684e-001  2.2284260e+000  6.6503572e-001  2.2284260e+000  2.4174504e+000 
 3.6384889e-001  4.8627645e-002  5.7177359e-001  1.8998351e-002  5.7208914e-001  2.2112231e+000  6.8820274e-001  2.2112231e+000  2.3748660e+000 
 4.1390228e-001  4.8627645e-002  5.3580379e-001  1.4685228e-002  5.3600502e-001  2.1953840e+000  7.0809525e-001  2.1953840e+000  2.3390348e+000 
 4.6745992e-001  4.8627645e-002  5.0525463e-001  1.1478568e-002  5.0538498e-001  2.1803920e+000  7.2537136e-001  2.1803920e+000  2.3080990e+000 
 5.2476656e-001  4.8627645e-002  4.7917637e-001  9.0607293e-003  4.7926202e-001  2.1658285e+000  7.4052691e-001  2.1658285e+000  2.2806745e+000 
 5.8608472e-001  4.8627645e-002  4.5680299e-001  7.2115920e-003  4.5685992e-001  2.1513979e+000  7.5394011e-001  2.1513979e+000  2.2557585e+000 
 6.5169525e-001  4.8627645e-002  4.3751031e-001  5.7876036e-003  4.3754858e-001  2.1368716e+000  7.6591039e-001  2.1368716e+000  2.2325959e+000 
 7.2189790e-001  4.8627645e-002  4.2079315e-001  4.6780785e-003  4.2081916e-001  2.1220875e+000  7.7667159e-001  2.1220875e+000  2.2106318e+000 
 7.9701531e-001  4.8627645e-002  4.0622544e-001  3.8154493e-003  4.0624335e-001  2.1069074e+000  7.8641772e-001  2.1069074e+000  2.1894243e+000 
 8.7739104e-001  4.8627645e-002  3.9344448e-001  3.1390314e-003  3.9345700e-001  2.0912397e+000  7.9530346e-001  2.0912397e+000  2.1686440e+000 
 9.6339333e-001  4.8627645e-002  3.8215074e-001  2.6059805e-003  3.8215962e-001  2.0750115e+000  8.0345559e-001  2.0750115e+000  2.1480346e+000 
 1.0554160e+000  4.8627645e-002  3.7209451e-001  2.1823023e-003  3.7210092e-001  2.0581694e+000  8.1097752e-001  2.0581694e+000  2.1273990e+000 
 1.1538795e+000  4.8627645e-002  3.6307564e-001  1.8425738e-003  3.6308032e-001  2.0406747e+000  8.1795305e-001  2.0406747e+000  2.1065884e+000 
 1.2592361e+000  4.8627645e-002  3.5491946e-001  1.5706240e-003  3.5492295e-001  2.0224893e+000  8.2445574e-001  2.0224893e+000  2.0854745e+000 
 1.3719671e+000  4.8627645e-002  3.4748265e-001  1.3477218e-003  3.4748527e-001  2.0035939e+000  8.3054334e-001  2.0035939e+000  2.0639670e+000 
 1.4925885e+000  4.8627645e-002  3.4066465e-001  1.1617141e-003  3.4066662e-001  1.9839648e+000  8.3626205e-001  1.9839648e+000  2.0419917e+000 
 1.6216545e+000  4.8627645e-002  3.3438653e-001  1.0050298e-003  3.3438805e-001  1.9635743e+000  8.4165126e-001  1.9635743e+000  2.0194819e+000 
 1.7597550e+000  4.8627645e-002  3.2858565e-001  8.7162852e-004  3.2858682e-001  1.9423940e+000  8.4674436e-001  1.9423940e+000  1.9963787e+000 
 1.9075224e+000  4.8627645e-002  3.2321501e-001  7.5671007e-004  3.2321590e-001  1.9203911e+000  8.5157013e-001  1.9203911e+000  1.9726254e+000 
 2.0656340e+000  4.8627645e-002  3.1823835e-001  6.5699063e-004  3.1823903e-001  1.8975272e+000  8.5615516e-001  1.8975272e+000  1.9481653e+000 
 2.2348135e+000  4.8627645e-002  3.1362560e-001  5.7038013e-004  3.1362611e-001  1.8737586e+000  8.6052346e-001  1.8737586e+000  1.9229392e+000 
 2.4158354e+000  4.8627645e-002  3.0935353e-001  4.9420545e-004  3.0935392e-001  1.8490365e+000  8.6469877e-001  1.8490365e+000  1.8968863e+000 
 2.6095285e+000  4.8627645e-002  3.0540478e-001  4.2719117e-004  3.0540508e-001  1.8233054e+000  8.6870277e-001  1.8233054e+000  1.8699415e+000 
 2.8167806e+000  4.8627645e-002  3.0176532e-001  3.6785472e-004  3.0176556e-001  1.7965018e+000  8.7255943e-001  1.7965018e+000  1.8420330e+000 
 3.0385399e+000  4.8627645e-002  2.9842418e-001  3.1539428e-004  2.9842436e-001  1.7685544e+000  8.7628990e-001  1.7685544e+000  1.8130831e+000 
 3.2758224e+000  4.8627645e-002  2.9537246e-001  2.6890001e-004  2.9537258e-001  1.7393825e+000  8.7992007e-001  1.7393825e+000  1.7830050e+000 
 3.5297146e+000  4.8627645e-002  2.9260248e-001  2.2761716e-004  2.9260257e-001  1.7088935e+000  8.8347024e-001  1.7088935e+000  1.7517017e+000 
 3.8013785e+000  4.8627645e-002  2.9010656e-001  1.9112592e-004  2.9010662e-001  1.6769830e+000  8.8696855e-001  1.6769830e+000  1.7190639e+000 
 4.0920601e+000  4.8627645e-002  2.8787741e-001  1.5902548e-004  2.8787744e-001  1.6435330e+000  8.9043254e-001  1.6435330e+000  1.6849697e+000 
 4.4030900e+000  4.8627645e-002  2.8590623e-001  1.3094193e-004  2.8590626e-001  1.6084099e+000  8.9389169e-001  1.6084099e+000  1.6492810e+000 
 4.7358913e+000  4.8627645e-002  2.8418252e-001  1.0645100e-004  2.8418255e-001  1.5714650e+000  8.9735711e-001  1.5714650e+000  1.6118449e+000 
 5.0919890e+000  4.8627645e-002  2.8269428e-001  8.5349675e-005  2.8269428e-001  1.5325310e+000  9.0085888e-001  1.5325310e+000  1.5724890e+000 
 5.4730139e+000  4.8627645e-002  2.8142685e-001  6.7549117e-005  2.8142685e-001  1.4914250e+000  9.0439707e-001  1.4914250e+000  1.5310255e+000 
 5.8807087e+000  4.8627645e-002  2.8036365e-001  5.2649957e-005  2.8036365e-001  1.4479449e+000  9.0800250e-001  1.4479449e+000  1.4872468e+000 
 6.3169422e+000  4.8627645e-002  2.7948636e-001  4.0328548e-005  2.7948636e-001  1.4018724e+000  9.1165960e-001  1.4018724e+000  1.4409287e+000 
 6.7837143e+000  4.8627645e-002  2.7877519e-001  3.0315146e-005  2.7877519e-001  1.3529707e+000  9.1540205e-001  1.3529707e+000  1.3918285e+000 
 7.2831593e+000  4.8627645e-002  2.7820939e-001  2.2340932e-005  2.7820939e-001  1.3009881e+000  9.1919410e-001  1.3009881e+000  1.3396883e+000 
 7.8175659e+000  4.8627645e-002  2.7776834e-001  1.6083110e-005  2.7776834e-001  1.2456552e+000  9.2307675e-001  1.2456552e+000  1.2842329e+000 
 8.3893795e+000  4.8627645e-002  2.7743188e-001  1.1417289e-005  2.7743188e-001  1.1866878e+000  9.2698932e-001  1.1866878e+000  1.2251720e+000 
 9.0012217e+000  4.8627645e-002  2.7718109e-001  7.8287994e-006  2.7718109e-001  1.1237854e+000  9.3098772e-001  1.1237854e+000  1.1622001e+000 
 9.6558924e+000  4.8627645e-002  2.7699867e-001  5.2379755e-006  2.7699867e-001  1.0566316e+000  9.3497944e-001  1.0566316e+000  1.0949957e+000 
 1.0356388e+001  4.8627645e-002  2.7686948e-001  3.4280267e-006  2.7686948e-001  9.8489332e-001  9.3904650e-001  9.8489332e-001  1.0232217e+000 
 1.1105920e+001  4.8627645e-002  2.7678034e-001  2.1919068e-006  2.7678034e-001  9.0822041e-001  9.4305450e-001  9.0822041e-001  9.4652408e-001 
 1.1907920e+001  4.8627645e-002  2.7672067e-001  1.3732680e-006  2.7672067e-001  8.2624322e-001  9.4712728e-001  8.2624322e-001  8.6453038e-001 
 1.2766060e+001  4.8627645e-002  2.7668193e-001  8.3774825e-007  2.7668193e-001  7.3857230e-001  9.5107222e-001  7.3857230e-001  7.7684873e-001 
 1.3684270e+001  4.8627645e-002  2.7665761e-001  4.7134225e-007  2.7665761e-001  6.4479440e-001  9.5507801e-001  6.4479440e-001  6.8306410e-001 
 1.4666756e+001  4.8627645e-002  2.7664280e-001  2.8924336e-007  2.7664280e-001  5.4447204e-001  9.5886856e-001  5.4447204e-001  5.8273768e-001 
 1.5718015e+001  4.8627645e-002  2.7663419e-001  1.3596596e-007  2.7663419e-001  4.3713969e-001  9.6273255e-001  4.3713969e-001  4.7540292e-001 
 1.6842865e+001  4.8627645e-002  2.7662933e-001  5.6140692e-008  2.7662933e-001  3.2230145e-001  9.6626902e-001  3.2230145e-001  3.6056334e-001 
 1.8046452e+001  4.8627645e-002  2.7662671e-001  3.3986527e-008  2.7662671e-001  1.9942954e-001  9.6992290e-001  1.9942954e-001  2.3769070e-001 
 1.9334295e+001  4.8627645e-002  2.7662510e-001  5.2919813e-008  2.7662510e-001  6.7958161e-002  9.7309917e-001  6.7958161e-002  1.0621888e-001 
 2.0000000e+001  4.8627645e-002  2.7662510e-001  5.2609774e-008  2.7662510e-001  0.0000000e+000  9.7474104e-001  0.0000000e+000  3.8260721e-002 
 0.0000000e+000  8.4863111e-002  1.0000000e+000  0.0000000e+000  1.0000000e+000  2.6028864e+000  0.0000000e+000  2.6028864e+000  3.1028864e+000 
 1.2291715e-002  8.4863111e-002  1.0124006e+000  5.3971834e-002  1.0138383e+000  2.5892391e+000  5.2405433e-003  2.5892391e+000  3.1031730e+000 
 3.7736509e-002  8.4863111e-002  1.0531428e+000  1.3465334e-001  1.0617162e+000  2.5609879e+000  3.1017395e-002  2.5609879e+000  3.1246085e+000 
 6.4963534e-002  8.4863111e-002  1.0985823e+000  1.7901205e-001  1.1130716e+000  2.5012250e+000  7.4405171e-002  2.5012250e+000  3.1206892e+000 
 9.4095588e-002  8.4863111e-002  1.1262878e+000  1.8915050e-001  1.1420605e+000  2.4388986e+000  1.2910663e-001  2.4388986e+000  3.0910497e+000 
 1.2526625e-001  8.4863111e-002  1.1301713e+000  1.8062510e-001  1.1445141e+000  2.3824830e+000  1.8858139e-001  2.3824830e+000  3.0374393e+000 
 1.5861896e-001  8.4863111e-002  1.1142428e+000  1.6000670e-001  1.1256727e+000  2.3372531e+000  2.4702860e-001  2.3372531e+000  2.9708226e+000 
 1.9430619e-001  8.4863111e-002  1.0815046e+000  1.3481008e-001  1.0898743e+000  2.3034449e+000  3.0162171e-001  2.3034449e+000  2.8973579e+000 
 2.3249130e-001  8.4863111e-002  1.0386466e+000  1.1027060e-001  1.0444838e+000  2.2768652e+000  3.5130128e-001  2.2768652e+000  2.8223383e+000 
 2.7334976e-001  8.4863111e-002  9.9095637e-001  8.8762462e-002  9.9492377e-001  2.2546470e+000  3.9585486e-001  2.2546470e+000  2.7495837e+000 
 3.1706923e-001  8.4863111e-002  9.4252980e-001  7.0839614e-002  9.4518816e-001  2.2350063e+000  4.3547553e-001  2.2350063e+000  2.6816967e+000 
 3.6384889e-001  8.4863111e-002  8.9586329e-001  5.6430250e-002  8.9763880e-001  2.2170346e+000  4.7060055e-001  2.2170346e+000  2.6199124e+000 
 4.1390228e-001  8.4863111e-002  8.5222501e-001  4.4990059e-002  8.5341173e-001  2.2003062e+000  5.0174260e-001  2.2003062e+000  2.5644619e+000 
 4.6745992e-001  8.4863111e-002  8.1226861e-001  3.5924129e-002  8.1306261e-001  2.1844382e+000  5.2940691e-001  2.1844382e+000  2.5149736e+000 
 5.2476656e-001  8.4863111e-002  7.7624315e-001  2.8772432e-002  7.7677619e-001  2.1690881e+000  5.5407178e-001  2.1690881e+000  2.4707787e+000 
 5.8608472e-001  8.4863111e-002  7.4407297e-001  2.3124181e-002  7.4443221e-001  2.1539977e+000  5.7616252e-001  2.1539977e+000  2.4310873e+000 
 6.5169525e-001  8.4863111e-002  7.1549845e-001  1.8668726e-002  7.1574193e-001  2.1389360e+000  5.9605575e-001  2.1389360e+000  2.3950794e+000 
 7.2189790e-001  8.4863111e-002  6.9018173e-001  1.5143700e-002  6.9034785e-001  2.1237280e+000  6.1406535e-001  2.1237280e+000  2.3620181e+000 