Variables = "x","y", "Velocity_x", "Velocity_y", "Velocity_whole value", "Pressure", "Absolute pressure", "Total pressure"
Zone i=62, j=22
 0.0000000e+000  0.0000000e+000  0.0000000e+000  0.0000000e+000  0.0000000e+000  2.1417282e+000  2.1417282e+000  2.1417282e+000 
 1.2291715e-002  0.0000000e+000  0.0000000e+000  0.0000000e+000  0.0000000e+000  2.0268569e+000  2.0268569e+000  2.0268569e+000 
 3.7736509e-002  0.0000000e+000  0.0000000e+000  0.0000000e+000  0.0000000e+000  1.7890644e+000  1.7890644e+000  1.7890644e+000 
 6.4963534e-002  0.0000000e+000  0.0000000e+000  0.0000000e+000  0.0000000e+000  1.6297303e+000  1.6297303e+000  1.6297303e+000 
 9.4095588e-002  0.0000000e+000  0.0000000e+000  0.0000000e+000  0.0000000e+000  1.5171561e+000  1.5171561e+000  1.5171561e+000 
 1.2526625e-001  0.0000000e+000  0.0000000e+000  0.0000000e+000  0.0000000e+000  1.4334761e+000  1.4334761e+000  1.4334761e+000 
 1.5861896e-001  0.0000000e+000  0.0000000e+000  0.0000000e+000  0.0000000e+000  1.3788894e+000  1.3788894e+000  1.3788894e+000 
 1.9430619e-001  0.0000000e+000  0.0000000e+000  0.0000000e+000  0.0000000e+000  1.3477693e+000  1.3477693e+000  1.3477693e+000 
 2.3249130e-001  0.0000000e+000  0.0000000e+000  0.0000000e+000  0.0000000e+000  1.3313910e+000  1.3313910e+000  1.3313910e+000 
 2.7334976e-001  0.0000000e+000  0.0000000e+000  0.0000000e+000  0.0000000e+000  1.3221712e+000  1.3221712e+000  1.3221712e+000 
 3.1706923e-001  0.0000000e+000  0.0000000e+000  0.0000000e+000  0.0000000e+000  1.3150508e+000  1.3150508e+000  1.3150508e+000 
 3.6384889e-001  0.0000000e+000  0.0000000e+000  0.0000000e+000  0.0000000e+000  1.3078481e+000  1.3078481e+000  1.3078481e+000 
 4.1390228e-001  0.0000000e+000  0.0000000e+000  0.0000000e+000  0.0000000e+000  1.2999721e+000  1.2999721e+000  1.2999721e+000 
 4.6745992e-001  0.0000000e+000  0.0000000e+000  0.0000000e+000  0.0000000e+000  1.2915355e+000  1.2915355e+000  1.2915355e+000 
 5.2476656e-001  0.0000000e+000  0.0000000e+000  0.0000000e+000  0.0000000e+000  1.2827307e+000  1.2827307e+000  1.2827307e+000 
 5.8608472e-001  0.0000000e+000  0.0000000e+000  0.0000000e+000  0.0000000e+000  1.2736374e+000  1.2736374e+000  1.2736374e+000 
 6.5169525e-001  0.0000000e+000  0.0000000e+000  0.0000000e+000  0.0000000e+000  1.2642581e+000  1.2642581e+000  1.2642581e+000 
 7.2189790e-001  0.0000000e+000  0.0000000e+000  0.0000000e+000  0.0000000e+000  1.2545419e+000  1.2545419e+000  1.2545419e+000 
 7.9701531e-001  0.0000000e+000  0.0000000e+000  0.0000000e+000  0.0000000e+000  1.2444429e+000  1.2444429e+000  1.2444429e+000 
 8.7739104e-001  0.0000000e+000  0.0000000e+000  0.0000000e+000  0.0000000e+000  1.2339314e+000  1.2339314e+000  1.2339314e+000 
 9.6339333e-001  0.0000000e+000  0.0000000e+000  0.0000000e+000  0.0000000e+000  1.2229882e+000  1.2229882e+000  1.2229882e+000 
 1.0554160e+000  0.0000000e+000  0.0000000e+000  0.0000000e+000  0.0000000e+000  1.2115834e+000  1.2115834e+000  1.2115834e+000 
 1.1538795e+000  0.0000000e+000  0.0000000e+000  0.0000000e+000  0.0000000e+000  1.1997139e+000  1.1997139e+000  1.1997139e+000 
 1.2592361e+000  0.0000000e+000  0.0000000e+000  0.0000000e+000  0.0000000e+000  1.1873666e+000  1.1873666e+000  1.1873666e+000 
 1.3719671e+000  0.0000000e+000  0.0000000e+000  0.0000000e+000  0.0000000e+000  1.1745323e+000  1.1745323e+000  1.1745323e+000 
 1.4925885e+000  0.0000000e+000  0.0000000e+000  0.0000000e+000  0.0000000e+000  1.1611992e+000  1.1611992e+000  1.1611992e+000 
 1.6216545e+000  0.0000000e+000  0.0000000e+000  0.0000000e+000  0.0000000e+000  1.1473565e+000  1.1473565e+000  1.1473565e+000 
 1.7597550e+000  0.0000000e+000  0.0000000e+000  0.0000000e+000  0.0000000e+000  1.1329888e+000  1.1329888e+000  1.1329888e+000 
 1.9075224e+000  0.0000000e+000  0.0000000e+000  0.0000000e+000  0.0000000e+000  1.1180797e+000  1.1180797e+000  1.1180797e+000 
 2.0656340e+000  0.0000000e+000  0.0000000e+000  0.0000000e+000  0.0000000e+000  1.1026096e+000  1.1026096e+000  1.1026096e+000 
 2.2348135e+000  0.0000000e+000  0.0000000e+000  0.0000000e+000  0.0000000e+000  1.0865510e+000  1.0865510e+000  1.0865510e+000 
 2.4158354e+000  0.0000000e+000  0.0000000e+000  0.0000000e+000  0.0000000e+000  1.0698839e+000  1.0698839e+000  1.0698839e+000 
 2.6095285e+000  0.0000000e+000  0.0000000e+000  0.0000000e+000  0.0000000e+000  1.0525810e+000  1.0525810e+000  1.0525810e+000 
 2.8167806e+000  0.0000000e+000  0.0000000e+000  0.0000000e+000  0.0000000e+000  1.0346092e+000  1.0346092e+000  1.0346092e+000 
 3.0385399e+000  0.0000000e+000  0.0000000e+000  0.0000000e+000  0.0000000e+000  1.0159361e+000  1.0159361e+000  1.0159361e+000 
 3.2758224e+000  0.0000000e+000  0.0000000e+000  0.0000000e+000  0.0000000e+000  9.9652475e-001  9.9652475e-001  9.9652475e-001 
 3.5297146e+000  0.0000000e+000  0.0000000e+000  0.0000000e+000  0.0000000e+000  9.7633672e-001  9.7633672e-001  9.7633672e-001 
 3.8013785e+000  0.0000000e+000  0.0000000e+000  0.0000000e+000  0.0000000e+000  9.5532846e-001  9.5532846e-001  9.5532846e-001 
 4.0920601e+000  0.0000000e+000  0.0000000e+000  0.0000000e+000  0.0000000e+000  9.3345439e-001  9.3345439e-001  9.3345439e-001 
 4.4030900e+000  0.0000000e+000  0.0000000e+000  0.0000000e+000  0.0000000e+000  9.1066414e-001  9.1066414e-001  9.1066414e-001 
 4.7358913e+000  0.0000000e+000  0.0000000e+000  0.0000000e+000  0.0000000e+000  8.8690382e-001  8.8690382e-001  8.8690382e-001 
 5.0919890e+000  0.0000000e+000  0.0000000e+000  0.0000000e+000  0.0000000e+000  8.6211193e-001  8.6211193e-001  8.6211193e-001 
 5.4730139e+000  0.0000000e+000  0.0000000e+000  0.0000000e+000  0.0000000e+000  8.3622223e-001  8.3622223e-001  8.3622223e-001 
 5.8807087e+000  0.0000000e+000  0.0000000e+000  0.0000000e+000  0.0000000e+000  8.0915898e-001  8.0915898e-001  8.0915898e-001 
 6.3169422e+000  0.0000000e+000  0.0000000e+000  0.0000000e+000  0.0000000e+000  7.8083956e-001  7.8083956e-001  7.8083956e-001 
 6.7837143e+000  0.0000000e+000  0.0000000e+000  0.0000000e+000  0.0000000e+000  7.5116819e-001  7.5116819e-001  7.5116819e-001 
 7.2831593e+000  0.0000000e+000  0.0000000e+000  0.0000000e+000  0.0000000e+000  7.2004086e-001  7.2004086e-001  7.2004086e-001 
 7.8175659e+000  0.0000000e+000  0.0000000e+000  0.0000000e+000  0.0000000e+000  6.8733722e-001  6.8733722e-001  6.8733722e-001 
 8.3893795e+000  0.0000000e+000  0.0000000e+000  0.0000000e+000  0.0000000e+000  6.5292645e-001  6.5292645e-001  6.5292645e-001 
 9.0012217e+000  0.0000000e+000  0.0000000e+000  0.0000000e+000  0.0000000e+000  6.1665845e-001  6.1665845e-001  6.1665845e-001 
 9.6558924e+000  0.0000000e+000  0.0000000e+000  0.0000000e+000  0.0000000e+000  5.7837230e-001  5.7837230e-001  5.7837230e-001 
 1.0356388e+001  0.0000000e+000  0.0000000e+000  0.0000000e+000  0.0000000e+000  5.3788519e-001  5.3788519e-001  5.3788519e-001 
 1.1105920e+001  0.0000000e+000  0.0000000e+000  0.0000000e+000  0.0000000e+000  4.9500355e-001  4.9500355e-001  4.9500355e-001 
 1.1907920e+001  0.0000000e+000  0.0000000e+000  0.0000000e+000  0.0000000e+000  4.4951078e-001  4.4951078e-001  4.4951078e-001 
 1.2766060e+001  0.0000000e+000  0.0000000e+000  0.0000000e+000  0.0000000e+000  4.0118057e-001  4.0118057e-001  4.0118057e-001 
 1.3684270e+001  0.0000000e+000  0.0000000e+000  0.0000000e+000  0.0000000e+000  3.4976444e-001  3.4976444e-001  3.4976444e-001 
 1.4666756e+001  0.0000000e+000  0.0000000e+000  0.0000000e+000  0.0000000e+000  2.9500145e-001  2.9500145e-001  2.9500145e-001 
 1.5718015e+001  0.0000000e+000  0.0000000e+000  0.0000000e+000  0.0000000e+000  2.3661645e-001  2.3661645e-001  2.3661645e-001 
 1.6842865e+001  0.0000000e+000  0.0000000e+000  0.0000000e+000  0.0000000e+000  1.7430639e-001  1.7430639e-001  1.7430639e-001 
 1.8046452e+001  0.0000000e+000  0.0000000e+000  0.0000000e+000  0.0000000e+000  1.0778531e-001  1.0778531e-001  1.0778531e-001 
 1.9334295e+001  0.0000000e+000  0.0000000e+000  0.0000000e+000  0.0000000e+000  3.6674477e-002  3.6674477e-002  3.6674477e-002 
 2.0000000e+001  0.0000000e+000  0.0000000e+000  0.0000000e+000  0.0000000e+000 -8.3694875e-005 -8.3694875e-005 -8.3694875e-005 
 0.0000000e+000  1.5686335e-002  1.0000000e+000  0.0000000e+000  1.0000000e+000  2.0091348e+000  2.0091348e+000  2.5091348e+000 
 1.2291715e-002  1.5686335e-002  9.5413786e-001  1.3938634e-001  9.6426535e-001  1.9197913e+000  1.9197913e+000  2.3846951e+000 
 3.7736509e-002  1.5686335e-002  8.4702569e-001  1.3949475e-001  8.5843539e-001  1.7348435e+000  1.7348435e+000  2.1032991e+000 
 6.4963534e-002  1.5686335e-002  7.1545970e-001  1.1128678e-001  7.2406310e-001  1.6039453e+000  1.6039453e+000  1.8660790e+000 
 9.4095588e-002  1.5686335e-002  5.8726919e-001  7.6854184e-002  5.9227669e-001  1.5069774e+000  1.5069774e+000  1.6823733e+000 
 1.2526625e-001  1.5686335e-002  4.7974852e-001  4.5639966e-002  4.8191455e-001  1.4342303e+000  1.4342303e+000  1.5503511e+000 
 1.5861896e-001  1.5686335e-002  3.9648771e-001  2.3005424e-002  3.9715457e-001  1.3852338e+000  1.3852338e+000  1.4640996e+000 
 1.9430619e-001  1.5686335e-002  3.3643442e-001  9.2141805e-003  3.3656058e-001  1.3556622e+000  1.3556622e+000  1.4122987e+000 
 2.3249130e-001  1.5686335e-002  2.9494798e-001  2.2380345e-003  2.9495648e-001  1.3386279e+000  1.3386279e+000  1.3821276e+000 
 2.7334976e-001  1.5686335e-002  2.6629862e-001 -3.8437979e-004  2.6629889e-001  1.3278763e+000  1.3278763e+000  1.3633339e+000 
 3.1706923e-001  1.5686335e-002  2.4541096e-001 -8.3380926e-004  2.4541238e-001  1.3192359e+000  1.3192359e+000  1.3493495e+000 
 3.6384889e-001  1.5686335e-002  2.2893085e-001 -5.9261802e-004  2.2893161e-001  1.3108498e+000  1.3108498e+000  1.3370546e+000 
 4.1390228e-001  1.5686335e-002  2.1508792e-001 -2.4592257e-004  2.1508805e-001  1.3021458e+000  1.3021458e+000  1.3252773e+000 
 4.6745992e-001  1.5686335e-002  2.0308134e-001 -2.3762062e-005  2.0308134e-001  1.2931486e+000  1.2931486e+000  1.3137697e+000 
 5.2476656e-001  1.5686335e-002  1.9258973e-001  8.0119535e-005  1.9258974e-001  1.2839578e+000  1.2839578e+000  1.3025032e+000 
 5.8608472e-001  1.5686335e-002  1.8341677e-001  1.2087297e-004  1.8341681e-001  1.2745892e+000  1.2745892e+000  1.2914101e+000 
 6.5169525e-001  1.5686335e-002  1.7539124e-001  1.2982097e-004  1.7539129e-001  1.2650082e+000  1.2650082e+000  1.2803893e+000 
 7.2189790e-001  1.5686335e-002  1.6834421e-001  1.2988257e-004  1.6834426e-001  1.2551404e+000  1.2551404e+000  1.2693104e+000 
 7.9701531e-001  1.5686335e-002  1.6210832e-001  1.2670290e-004  1.6210836e-001  1.2449265e+000  1.2449265e+000  1.2580661e+000 
 8.7739104e-001  1.5686335e-002  1.5654206e-001  1.2096617e-004  1.5654211e-001  1.2343264e+000  1.2343264e+000  1.2465791e+000 
 9.6339333e-001  1.5686335e-002  1.5154636e-001  1.1273631e-004  1.5154640e-001  1.2233139e+000  1.2233139e+000  1.2347971e+000 
 1.0554160e+000  1.5686335e-002  1.4702483e-001  1.0640004e-004  1.4702487e-001  1.2118545e+000  1.2118545e+000  1.2226626e+000 
 1.1538795e+000  1.5686335e-002  1.4289831e-001  9.8311808e-005  1.4289834e-001  1.1999419e+000  1.1999419e+000  1.2101518e+000 
 1.2592361e+000  1.5686335e-002  1.3911049e-001  9.0380679e-005  1.3911052e-001  1.1875600e+000  1.1875600e+000  1.1972358e+000 
 1.3719671e+000  1.5686335e-002  1.3561332e-001  8.2848761e-005  1.3561335e-001  1.1746973e+000  1.1746973e+000  1.1838927e+000 
 1.4925885e+000  1.5686335e-002  1.3236822e-001  7.5357944e-005  1.3236824e-001  1.1613411e+000  1.1613411e+000  1.1701018e+000 
 1.6216545e+000  1.5686335e-002  1.2934545e-001  6.8283960e-005  1.2934546e-001  1.1474789e+000  1.1474789e+000  1.1558441e+000 
 1.7597550e+000  1.5686335e-002  1.2652096e-001  6.1894905e-005  1.2652098e-001  1.1330949e+000  1.1330949e+000  1.1410987e+000 
 1.9075224e+000  1.5686335e-002  1.2387472e-001  5.5690525e-005  1.2387474e-001  1.1181719e+000  1.1181719e+000  1.1258444e+000 
 2.0656340e+000  1.5686335e-002  1.2139466e-001  4.9811981e-005  1.2139467e-001  1.1026901e+000  1.1026901e+000  1.1100584e+000 
 2.2348135e+000  1.5686335e-002  1.1906464e-001  4.4789915e-005  1.1906465e-001  1.0866213e+000  1.0866213e+000  1.0937095e+000 
 2.4158354e+000  1.5686335e-002  1.1687019e-001  4.0171861e-005  1.1687019e-001  1.0699455e+000  1.0699455e+000  1.0767747e+000 
 2.6095285e+000  1.5686335e-002  1.1480464e-001  3.5980309e-005  1.1480465e-001  1.0526347e+000  1.0526347e+000  1.0592247e+000 
 2.8167806e+000  1.5686335e-002  1.1286038e-001  3.1999392e-005  1.1286039e-001  1.0346564e+000  1.0346564e+000  1.0410252e+000 
 3.0385399e+000  1.5686335e-002  1.1103029e-001  2.8511762e-005  1.1103029e-001  1.0159775e+000  1.0159775e+000  1.0221413e+000 
 3.2758224e+000  1.5686335e-002  1.0930771e-001  2.5429765e-005  1.0930771e-001  9.9656099e-001  9.9656099e-001  1.0025351e+000 
 3.5297146e+000  1.5686335e-002  1.0768778e-001  2.2417005e-005  1.0768778e-001  9.7636855e-001  9.7636855e-001  9.8216689e-001 
 3.8013785e+000  1.5686335e-002  1.0616565e-001  1.9915919e-005  1.0616565e-001  9.5535624e-001  9.5535624e-001  9.6099180e-001 
 4.0920601e+000  1.5686335e-002  1.0473699e-001  1.7626655e-005  1.0473699e-001  9.3347865e-001  9.3347865e-001  9.3896359e-001 
 4.4030900e+000  1.5686335e-002  1.0339818e-001  1.5523956e-005  1.0339818e-001  9.1068542e-001  9.1068542e-001  9.1603100e-001 
 4.7358913e+000  1.5686335e-002  1.0214709e-001  1.3730510e-005  1.0214709e-001  8.8692224e-001  8.8692224e-001  8.9213926e-001 
 5.0919890e+000  1.5686335e-002  1.0098107e-001  1.2000259e-005  1.0098107e-001  8.6212790e-001  8.6212790e-001  8.6722648e-001 
 5.4730139e+000  1.5686335e-002  9.9899329e-002  1.0522491e-005  9.9899329e-002  8.3623600e-001  8.3623600e-001  8.4122592e-001 
 5.8807087e+000  1.5686335e-002  9.8899819e-002  9.0017920e-006  9.8899819e-002  8.0917084e-001  8.0917084e-001  8.1406140e-001 
 6.3169422e+000  1.5686335e-002  9.7982697e-002  7.7894556e-006  9.7982697e-002  7.8084970e-001  7.8084970e-001  7.8565001e-001 
 6.7837143e+000  1.5686335e-002  9.7145937e-002  6.6600892e-006  9.7145937e-002  7.5117671e-001  7.5117671e-001  7.5589538e-001 
 7.2831593e+000  1.5686335e-002  9.6389629e-002  5.6308927e-006  9.6389629e-002  7.2004801e-001  7.2004801e-001  7.2469348e-001 
 7.8175659e+000  1.5686335e-002  9.5711097e-002  4.7478597e-006  9.5711097e-002  6.8734318e-001  6.8734318e-001  6.9192350e-001 
 8.3893795e+000  1.5686335e-002  9.5109999e-002  3.9106703e-006  9.5109999e-002  6.5293139e-001  6.5293139e-001  6.5745437e-001 
 9.0012217e+000  1.5686335e-002  9.4582088e-002  3.2131479e-006  9.4582088e-002  6.1666250e-001  6.1666250e-001  6.2113541e-001 
 9.6558924e+000  1.5686335e-002  9.4126031e-002  2.5827851e-006  9.4126031e-002  5.7837552e-001  5.7837552e-001  5.8280540e-001 
 1.0356388e+001  1.5686335e-002  9.3735613e-002  2.0662169e-006  9.3735613e-002  5.3788775e-001  5.3788775e-001  5.4228091e-001 
 1.1105920e+001  1.5686335e-002  9.3408458e-002  1.5980776e-006  9.3408458e-002  4.9500555e-001  4.9500555e-001  4.9936813e-001 
 1.1907920e+001  1.5686335e-002  9.3136758e-002  1.2363820e-006  9.3136758e-002  4.4951230e-001  4.4951230e-001  4.5384952e-001 
 1.2766060e+001  1.5686335e-002  9.2916943e-002  9.1351416e-007  9.2916943e-002  4.0118173e-001  4.0118173e-001  4.0549850e-001 
 1.3684270e+001  1.5686335e-002  9.2740916e-002  6.8476658e-007  9.2740916e-002  3.4976524e-001  3.4976524e-001  3.5406569e-001 
 1.4666756e+001  1.5686335e-002  9.2603512e-002  4.9672957e-007  9.2603512e-002  2.9500207e-001  2.9500207e-001  2.9928979e-001 
 1.5718015e+001  1.5686335e-002  9.2499375e-002  3.3358896e-007  9.2499375e-002  2.3661689e-001  2.3661689e-001  2.4089496e-001 
 1.6842865e+001  1.5686335e-002  9.2418358e-002  2.5209911e-007  9.2418358e-002  1.7430669e-001  1.7430669e-001  1.7857727e-001 
 1.8046452e+001  1.5686335e-002  9.2366651e-002  1.4898578e-007  9.2366651e-002  1.0778553e-001  1.0778553e-001  1.1205133e-001 
 1.9334295e+001  1.5686335e-002  9.2312023e-002 -1.0133115e-009  9.2312023e-002  3.6674555e-002  3.6674555e-002  4.0935311e-002 
 2.0000000e+001  1.5686335e-002  9.2312023e-002 -2.3172948e-009  9.2312023e-002  0.0000000e+000  0.0000000e+000  4.2607547e-003 
 0.0000000e+000  4.8627645e-002  1.0000000e+000  0.0000000e+000  1.0000000e+000  1.7306886e+000  1.7306886e+000  2.2306886e+000 
 1.2291715e-002  4.8627645e-002  1.0265847e+000  8.0040395e-002  1.0297003e+000  1.6949536e+000  1.6949536e+000  2.2250948e+000 
 3.7736509e-002  4.8627645e-002  1.0657686e+000  1.5480229e-001  1.0769523e+000  1.6209797e+000  1.6209797e+000  2.2008929e+000 
 6.4963534e-002  4.8627645e-002  1.0748622e+000  1.7480479e-001  1.0889838e+000  1.5497966e+000  1.5497966e+000  2.1427393e+000 
 9.4095588e-002  4.8627645e-002  1.0594735e+000  1.6900480e-001  1.0728685e+000  1.4856020e+000  1.4856020e+000  2.0611253e+000 
 1.2526625e-001  4.8627645e-002  1.0208523e+000  1.4564118e-001  1.0311891e+000  1.4358144e+000  1.4358144e+000  1.9674898e+000 
 1.5861896e-001  4.8627645e-002  9.6678543e-001  1.1392144e-001  9.7347426e-001  1.3985567e+000  1.3985567e+000  1.8723828e+000 
 1.9430619e-001  4.8627645e-002  9.0447766e-001  8.3224326e-002  9.0829849e-001  1.3722379e+000  1.3722379e+000  1.7847409e+000 
 2.3249130e-001  4.8627645e-002  8.4036320e-001  5.8578603e-002  8.4240240e-001  1.3538254e+000  1.3538254e+000  1.7086463e+000 
 2.7334976e-001  4.8627645e-002  7.7993762e-001  4.1108694e-002  7.8102022e-001  1.3398570e+000  1.3398570e+000  1.6448534e+000 
 3.1706923e-001  4.8627645e-002  7.2554439e-001  2.9783446e-002  7.2615546e-001  1.3280247e+000  1.3280247e+000  1.5916756e+000 
 3.6384889e-001  4.8627645e-002  6.7783946e-001  2.2420665e-002  6.7821014e-001  1.3171536e+000  1.3171536e+000  1.5471381e+000 
 4.1390228e-001  4.8627645e-002  6.3649583e-001  1.7440954e-002  6.3673472e-001  1.3067107e+000  1.3067107e+000  1.5094262e+000 
 4.6745992e-001  4.8627645e-002  6.0072881e-001  1.3819375e-002  6.0088772e-001  1.2965362e+000  1.2965362e+000  1.4770693e+000 
 5.2476656e-001  4.8627645e-002  5.6970447e-001  1.1049737e-002  5.6981164e-001  1.2865349e+000  1.2865349e+000  1.4488776e+000 
 5.8608472e-001  4.8627645e-002  5.4265422e-001  8.9023616e-003  5.4272723e-001  1.2765880e+000  1.2765880e+000  1.4238644e+000 
 6.5169525e-001  4.8627645e-002  5.1894575e-001  7.2211237e-003  5.1899600e-001  1.2665833e+000  1.2665833e+000  1.4012617e+000 
 7.2189790e-001  4.8627645e-002  4.9806085e-001  5.9141321e-003  4.9809596e-001  1.2563975e+000  1.2563975e+000  1.3804473e+000 
 7.9701531e-001  4.8627645e-002  4.7954813e-001  4.8944326e-003  4.7957310e-001  1.2459418e+000  1.2459418e+000  1.3609369e+000 
 8.7739104e-001  4.8627645e-002  4.6302450e-001  4.0865918e-003  4.6304253e-001  1.2351557e+000  1.2351557e+000  1.3423599e+000 
 9.6339333e-001  4.8627645e-002  4.4820753e-001  3.4352895e-003  4.4822070e-001  1.2239982e+000  1.2239982e+000  1.3244491e+000 
 1.0554160e+000  4.8627645e-002  4.3482649e-001  2.9180516e-003  4.3483630e-001  1.2124239e+000  1.2124239e+000  1.3069652e+000 
 1.1538795e+000  4.8627645e-002  4.2265451e-001  2.4943841e-003  4.2266187e-001  1.2004209e+000  1.2004209e+000  1.2897424e+000 
 1.2592361e+000  4.8627645e-002  4.1151696e-001  2.1463297e-003  4.1152257e-001  1.1879660e+000  1.1879660e+000  1.2726414e+000 
 1.3719671e+000  4.8627645e-002  4.0126809e-001  1.8566393e-003  4.0127239e-001  1.1750438e+000  1.1750438e+000  1.2555536e+000 
 1.4925885e+000  4.8627645e-002  3.9178917e-001  1.6136246e-003  3.9179248e-001  1.1616389e+000  1.1616389e+000  1.2383895e+000 
 1.6216545e+000  4.8627645e-002  3.8298577e-001  1.4071697e-003  3.8298836e-001  1.1477360e+000  1.1477360e+000  1.2210760e+000 
 1.7597550e+000  4.8627645e-002  3.7478203e-001  1.2307778e-003  3.7478405e-001  1.1333178e+000  1.1333178e+000  1.2035494e+000 
 1.9075224e+000  4.8627645e-002  3.6711419e-001  1.0781708e-003  3.6711577e-001  1.1183658e+000  1.1183658e+000  1.1857527e+000 
 2.0656340e+000  4.8627645e-002  3.5994080e-001  9.4539690e-004  3.5994205e-001  1.1028589e+000  1.1028589e+000  1.1676381e+000 
 2.2348135e+000  4.8627645e-002  3.5321406e-001  8.3167217e-004  3.5321504e-001  1.0867687e+000  1.0867687e+000  1.1491492e+000 
 2.4158354e+000  4.8627645e-002  3.4689039e-001  7.3198479e-004  3.4689116e-001  1.0700746e+000  1.0700746e+000  1.1302413e+000 
 2.6095285e+000  4.8627645e-002  3.4094605e-001  6.4406631e-004  3.4094664e-001  1.0527477e+000  1.0527477e+000  1.1108700e+000 
 2.8167806e+000  4.8627645e-002  3.3535734e-001  5.6670507e-004  3.3535782e-001  1.0347555e+000  1.0347555e+000  1.0909879e+000 
 3.0385399e+000  4.8627645e-002  3.3010316e-001  4.9863762e-004  3.3010355e-001  1.0160643e+000  1.0160643e+000  1.0705484e+000 
 3.2758224e+000  4.8627645e-002  3.2516339e-001  4.3854807e-004  3.2516369e-001  9.9663711e-001  9.9663711e-001  1.0495028e+000 
 3.5297146e+000  4.8627645e-002  3.2052314e-001  3.8538655e-004  3.2052338e-001  9.7643518e-001  9.7643518e-001  1.0278028e+000 
 3.8013785e+000  4.8627645e-002  3.1616771e-001  3.3831713e-004  3.1616789e-001  9.5541459e-001  9.5541459e-001  1.0053957e+000 
 4.0920601e+000  4.8627645e-002  3.1208462e-001  2.9664562e-004  3.1208476e-001  9.3352962e-001  9.3352962e-001  9.8222804e-001 
 4.4030900e+000  4.8627645e-002  3.0826244e-001  2.5937578e-004  3.0826256e-001  9.1072994e-001  9.1072994e-001  9.5824283e-001 
 4.7358913e+000  4.8627645e-002  3.0469471e-001  2.2631913e-004  3.0469480e-001  8.8696086e-001  8.8696086e-001  9.3338031e-001 
 5.0919890e+000  4.8627645e-002  3.0137327e-001  1.9672992e-004  3.0137333e-001  8.6216146e-001  8.6216146e-001  9.0757442e-001 
 5.4730139e+000  4.8627645e-002  2.9829532e-001  1.7025291e-004  2.9829538e-001  8.3626497e-001  8.3626497e-001  8.8075501e-001 
 5.8807087e+000  4.8627645e-002  2.9545438e-001  1.4655569e-004  2.9545441e-001  8.0919570e-001  8.0919570e-001  8.5284233e-001 
 6.3169422e+000  4.8627645e-002  2.9285043e-001  1.2533853e-004  2.9285046e-001  7.8087091e-001  7.8087091e-001  8.2375163e-001 
 6.7837143e+000  4.8627645e-002  2.9047686e-001  1.0643376e-004  2.9047689e-001  7.5119472e-001  7.5119472e-001  7.9338312e-001 
 7.2831593e+000  4.8627645e-002  2.8833374e-001  8.9651061e-005  2.8833374e-001  7.2006315e-001  7.2006315e-001  7.6163131e-001 
 7.8175659e+000  4.8627645e-002  2.8641257e-001  7.4705691e-005  2.8641257e-001  6.8735576e-001  6.8735576e-001  7.2837186e-001 
 8.3893795e+000  4.8627645e-002  2.8471220e-001  6.1584135e-005  2.8471220e-001  6.5294170e-001  6.5294170e-001  6.9347221e-001 
 9.0012217e+000  4.8627645e-002  2.8321975e-001  5.0177718e-005  2.8321975e-001  6.1667091e-001  6.1667091e-001  6.5677762e-001 
 9.6558924e+000  4.8627645e-002  2.8193158e-001  4.0338251e-005  2.8193158e-001  5.7838231e-001  5.7838231e-001  6.1812502e-001 
 1.0356388e+001  4.8627645e-002  2.8082916e-001  3.1999032e-005  2.8082916e-001  5.3789312e-001  5.3789312e-001  5.7732564e-001 
 1.1105920e+001  4.8627645e-002  2.7990615e-001  2.4910139e-005  2.7990615e-001  4.9500975e-001  4.9500975e-001  5.3418350e-001 
 1.1907920e+001  4.8627645e-002  2.7913958e-001  1.9168037e-005  2.7913958e-001  4.4951552e-001  4.4951552e-001  4.8847497e-001 
 1.2766060e+001  4.8627645e-002  2.7851999e-001  1.4370256e-005  2.7851999e-001  4.0118414e-001  4.0118414e-001  4.3997082e-001 
 1.3684270e+001  4.8627645e-002  2.7802363e-001  1.0677737e-005  2.7802363e-001  3.4976703e-001  3.4976703e-001  3.8841560e-001 
 1.4666756e+001  4.8627645e-002  2.7763653e-001  7.6552797e-006  2.7763653e-001  2.9500338e-001  2.9500338e-001  3.3354440e-001 
 1.5718015e+001  4.8627645e-002  2.7734300e-001  5.4899756e-006  2.7734300e-001  2.3661783e-001  2.3661783e-001  2.7507740e-001 
 1.6842865e+001  4.8627645e-002  2.7711469e-001  3.7317345e-006  2.7711469e-001  1.7430732e-001  1.7430732e-001  2.1270359e-001 
 1.8046452e+001  4.8627645e-002  2.7696946e-001  2.6639434e-006  2.7696946e-001  1.0778599e-001  1.0778599e-001  1.4614204e-001 
 1.9334295e+001  4.8627645e-002  2.7681518e-001  1.4450287e-006  2.7681518e-001  3.6674708e-002  3.6674708e-002  7.4988030e-002 
 2.0000000e+001  4.8627645e-002  2.7681518e-001  1.4472524e-006  2.7681518e-001  0.0000000e+000  0.0000000e+000  3.8313322e-002 
 0.0000000e+000  8.4863111e-002  1.0000000e+000  0.0000000e+000  1.0000000e+000  1.5900068e+000  1.5900068e+000  2.0900068e+000 
 1.2291715e-002  8.4863111e-002  1.0075811e+000  3.3145335e-002  1.0081261e+000  1.5813564e+000  1.5813564e+000  2.0895154e+000 
 3.7736509e-002  8.4863111e-002  1.0345985e+000  8.5797146e-002  1.0381498e+000  1.5634497e+000  1.5634497e+000  2.1023273e+000 
 6.4963534e-002  8.4863111e-002  1.0712422e+000  1.2131424e-001  1.0780895e+000  1.5254151e+000  1.5254151e+000  2.1065536e+000 
 9.4095588e-002  8.4863111e-002  1.1033564e+000  1.4079285e-001  1.1123030e+000  1.4825175e+000  1.4825175e+000  2.1011264e+000 
 1.2526625e-001  8.4863111e-002  1.1234285e+000  1.4264400e-001  1.1324482e+000  1.4430155e+000  1.4430155e+000  2.0842350e+000 
 1.5861896e-001  8.4863111e-002  1.1287237e+000  1.3515618e-001  1.1367869e+000  1.4078852e+000  1.4078852e+000  2.0540273e+000 
 1.9430619e-001  8.4863111e-002  1.1218381e+000  1.2145898e-001  1.1283940e+000  1.3793913e+000  1.3793913e+000  2.0160277e+000 
 2.3249130e-001  8.4863111e-002  1.1024470e+000  1.0528999e-001  1.1074635e+000  1.3592510e+000  1.3592510e+000  1.9724888e+000 
 2.7334976e-001  8.4863111e-002  1.0742971e+000  8.8968046e-002  1.0779747e+000  1.3440338e+000  1.3440338e+000  1.9250486e+000 
 3.1706923e-001  8.4863111e-002  1.0408002e+000  7.4383698e-002  1.0434549e+000  1.3315705e+000  1.3315705e+000  1.8759695e+000 
 3.6384889e-001  8.4863111e-002  1.0044296e+000  6.1634541e-002  1.0063188e+000  1.3204678e+000  1.3204678e+000  1.8268067e+000 
 4.1390228e-001  8.4863111e-002  9.6734118e-001  5.0800830e-002  9.6867418e-001  1.3097818e+000  1.3097818e+000  1.7789466e+000 
 4.6745992e-001  8.4863111e-002  9.3076652e-001  4.1755646e-002  9.3170267e-001  1.2993083e+000  1.2993083e+000  1.7333432e+000 
 5.2476656e-001  8.4863111e-002  8.9553434e-001  3.4289524e-002  8.9619058e-001  1.2889473e+000  1.2889473e+000  1.6905261e+000 
 5.8608472e-001  8.4863111e-002  8.6219072e-001  2.8183024e-002  8.6265123e-001  1.2786168e+000  1.2786168e+000  1.6507003e+000 
 6.5169525e-001  8.4863111e-002  8.3105588e-001  2.3193948e-002  8.3137947e-001  1.2682483e+000  1.2682483e+000  1.6138443e+000 
 7.2189790e-001  8.4863111e-002  8.0230469e-001  1.9162929e-002  8.0253351e-001  1.2577415e+000  1.2577415e+000  1.5797715e+000 
 7.9701531e-001  8.4863111e-002  7.7592474e-001  1.5917692e-002  7.7608800e-001  1.2470199e+000  1.2470199e+000  1.5481762e+000 
 8.7739104e-001  8.4863111e-002  7.5178313e-001  1.3293647e-002  7.5190067e-001  1.2360221e+000  1.2360221e+000  1.5186994e+000 
 9.6339333e-001  8.4863111e-002  7.2973400e-001  1.1160231e-002  7.2981936e-001  1.2246964e+000  1.2246964e+000  1.4910145e+000 
 1.0554160e+000  8.4863111e-002  7.0955539e-001  9.4447955e-003  7.0961827e-001  1.2129890e+000  1.2129890e+000  1.4647681e+000 
 1.1538795e+000  8.4863111e-002  6.9102436e-001  8.0432193e-003  6.9107115e-001  1.2008834e+000  1.2008834e+000  1.4396731e+000 
 1.2592361e+000  8.4863111e-002  6.7395151e-001  6.8929866e-003  6.7398673e-001  1.1883478e+000  1.1883478e+000  1.4154769e+000 
 1.3719671e+000  8.4863111e-002  6.5816504e-001  5.9397570e-003  6.5819186e-001  1.1753620e+000  1.1753620e+000  1.3919703e+000 
 1.4925885e+000  8.4863111e-002  6.4351577e-001  5.1430012e-003  6.4353633e-001  1.1619064e+000  1.1619064e+000  1.3689759e+000 
 1.6216545e+000  8.4863111e-002  6.2987810e-001  4.4703092e-003  6.2989396e-001  1.1479625e+000  1.1479625e+000  1.3463457e+000 
 1.7597550e+000  8.4863111e-002  6.1714745e-001  3.8984574e-003  6.1715978e-001  1.1335109e+000  1.1335109e+000  1.3239540e+000 
 1.9075224e+000  8.4863111e-002  6.0523266e-001  3.4068373e-003  6.0524225e-001  1.1185315e+000  1.1185315e+000  1.3016906e+000 
 2.0656340e+000  8.4863111e-002  5.9407240e-001  2.9814444e-003  5.9407991e-001  1.1030015e+000  1.1030015e+000  1.2794670e+000 
 2.2348135e+000  8.4863111e-002  5.8359832e-001  2.6165156e-003  5.8360416e-001  1.0868918e+000  1.0868918e+000  1.2571887e+000 
 2.4158354e+000  8.4863111e-002  5.7374716e-001  2.2985958e-003  5.7375175e-001  1.0701811e+000  1.0701811e+000  1.2347766e+000 
 2.6095285e+000  8.4863111e-002  5.6448156e-001  2.0192685e-003  5.6448519e-001  1.0528405e+000  1.0528405e+000  1.2121623e+000 
 2.8167806e+000  8.4863111e-002  5.5576658e-001  1.7744523e-003  5.5576944e-001  1.0348361e+000  1.0348361e+000  1.1892759e+000 
 3.0385399e+000  8.4863111e-002  5.4757124e-001  1.5591531e-003  5.4757345e-001  1.0161344e+000  1.0161344e+000  1.1660527e+000 
 3.2758224e+000  8.4863111e-002  5.3986579e-001  1.3695266e-003  5.3986752e-001  9.9669820e-001  9.9669820e-001  1.1424267e+000 
 3.5297146e+000  8.4863111e-002  5.3262824e-001  1.2018293e-003  5.3262961e-001  9.7648835e-001  9.7648835e-001  1.1183355e+000 
 3.8013785e+000  8.4863111e-002  5.2583623e-001  1.0538438e-003  5.2583730e-001  9.5546079e-001  9.5546079e-001  1.0937132e+000 
 4.0920601e+000  8.4863111e-002  5.1947176e-001  9.2264544e-004  5.1947260e-001  9.3356985e-001  9.3356985e-001  1.0684958e+000 
 4.4030900e+000  8.4863111e-002  5.1351714e-001  8.0614840e-004  5.1351780e-001  9.1076487e-001  9.1076487e-001  1.0426152e+000 
 4.7358913e+000  8.4863111e-002  5.0796294e-001  7.0236664e-004  5.0796342e-001  8.8699108e-001  8.8699108e-001  1.0160046e+000 
 5.0919890e+000  8.4863111e-002  5.0279599e-001  6.0990854e-004  5.0279635e-001  8.6218762e-001  8.6218762e-001  9.8858970e-001 
 5.4730139e+000  8.4863111e-002  4.9801239e-001  5.2718038e-004  4.9801266e-001  8.3628744e-001  8.3628744e-001  9.6029574e-001 