Variables = "x","y", "Velocity_x", "Velocity_y", "Velocity_whole value", "Pressure", "Temperature", "Absolute pressure", "Total pressure"
Zone i=62, j=22
 0.0000000e+000  0.0000000e+000  0.0000000e+000  0.0000000e+000  0.0000000e+000  3.6269217e+000  3.7177504e-004  3.6269217e+000  3.6269217e+000 
 1.2291715e-002  0.0000000e+000  0.0000000e+000  0.0000000e+000  0.0000000e+000  3.4057536e+000  6.4808759e-003  3.4057536e+000  3.4057536e+000 
 3.7736509e-002  0.0000000e+000  0.0000000e+000  0.0000000e+000  0.0000000e+000  2.9479189e+000  1.9127185e-002  2.9479189e+000  2.9479189e+000 
 6.4963534e-002  0.0000000e+000  0.0000000e+000  0.0000000e+000  0.0000000e+000  2.6492136e+000  3.1854339e-002  2.6492136e+000  2.6492136e+000 
 9.4095588e-002  0.0000000e+000  0.0000000e+000  0.0000000e+000  0.0000000e+000  2.4624503e+000  4.4146188e-002  2.4624503e+000  2.4624503e+000 
 1.2526625e-001  0.0000000e+000  0.0000000e+000  0.0000000e+000  0.0000000e+000  2.3509116e+000  5.5471838e-002  2.3509116e+000  2.3509116e+000 
 1.5861896e-001  0.0000000e+000  0.0000000e+000  0.0000000e+000  0.0000000e+000  2.2903314e+000  6.5670565e-002  2.2903314e+000  2.2903314e+000 
 1.9430619e-001  0.0000000e+000  0.0000000e+000  0.0000000e+000  0.0000000e+000  2.2585127e+000  7.4940532e-002  2.2585127e+000  2.2585127e+000 
 2.3249130e-001  0.0000000e+000  0.0000000e+000  0.0000000e+000  0.0000000e+000  2.2396743e+000  8.3583571e-002  2.2396743e+000  2.2396743e+000 
 2.7334976e-001  0.0000000e+000  0.0000000e+000  0.0000000e+000  0.0000000e+000  2.2254279e+000  9.1847450e-002  2.2254279e+000  2.2254279e+000 
 3.1706923e-001  0.0000000e+000  0.0000000e+000  0.0000000e+000  0.0000000e+000  2.2123866e+000  9.9885032e-002  2.2123866e+000  2.2123866e+000 
 3.6384889e-001  0.0000000e+000  0.0000000e+000  0.0000000e+000  0.0000000e+000  2.1995351e+000  1.0777862e-001  2.1995351e+000  2.1995351e+000 
 4.1390228e-001  0.0000000e+000  0.0000000e+000  0.0000000e+000  0.0000000e+000  2.1866865e+000  1.1557161e-001  2.1866865e+000  2.1866865e+000 
 4.6745992e-001  0.0000000e+000  0.0000000e+000  0.0000000e+000  0.0000000e+000  2.1737866e+000  1.2329061e-001  2.1737866e+000  2.1737866e+000 
 5.2476656e-001  0.0000000e+000  0.0000000e+000  0.0000000e+000  0.0000000e+000  2.1607327e+000  1.3095573e-001  2.1607327e+000  2.1607327e+000 
 5.8608472e-001  0.0000000e+000  0.0000000e+000  0.0000000e+000  0.0000000e+000  2.1474161e+000  1.3858329e-001  2.1474161e+000  2.1474161e+000 
 6.5169525e-001  0.0000000e+000  0.0000000e+000  0.0000000e+000  0.0000000e+000  2.1337278e+000  1.4618732e-001  2.1337278e+000  2.1337278e+000 
 7.2189790e-001  0.0000000e+000  0.0000000e+000  0.0000000e+000  0.0000000e+000  2.1195812e+000  1.5377986e-001  2.1195812e+000  2.1195812e+000 
 7.9701531e-001  0.0000000e+000  0.0000000e+000  0.0000000e+000  0.0000000e+000  2.1048913e+000  1.6137344e-001  2.1048913e+000  2.1048913e+000 
 8.7739104e-001  0.0000000e+000  0.0000000e+000  0.0000000e+000  0.0000000e+000  2.0896025e+000  1.6898008e-001  2.0896025e+000  2.0896025e+000 
 9.6339333e-001  0.0000000e+000  0.0000000e+000  0.0000000e+000  0.0000000e+000  2.0736694e+000  1.7661177e-001  2.0736694e+000  2.0736694e+000 
 1.0554160e+000  0.0000000e+000  0.0000000e+000  0.0000000e+000  0.0000000e+000  2.0570588e+000  1.8428011e-001  2.0570588e+000  2.0570588e+000 
 1.1538795e+000  0.0000000e+000  0.0000000e+000  0.0000000e+000  0.0000000e+000  2.0397475e+000  1.9199610e-001  2.0397475e+000  2.0397475e+000 
 1.2592361e+000  0.0000000e+000  0.0000000e+000  0.0000000e+000  0.0000000e+000  2.0217083e+000  1.9977173e-001  2.0217083e+000  2.0217083e+000 
 1.3719671e+000  0.0000000e+000  0.0000000e+000  0.0000000e+000  0.0000000e+000  2.0029304e+000  2.0761789e-001  2.0029304e+000  2.0029304e+000 
 1.4925885e+000  0.0000000e+000  0.0000000e+000  0.0000000e+000  0.0000000e+000  1.9833980e+000  2.1554409e-001  1.9833980e+000  1.9833980e+000 
 1.6216545e+000  0.0000000e+000  0.0000000e+000  0.0000000e+000  0.0000000e+000  1.9630874e+000  2.2355902e-001  1.9630874e+000  1.9630874e+000 
 1.7597550e+000  0.0000000e+000  0.0000000e+000  0.0000000e+000  0.0000000e+000  1.9419743e+000  2.3167038e-001  1.9419743e+000  1.9419743e+000 
 1.9075224e+000  0.0000000e+000  0.0000000e+000  0.0000000e+000  0.0000000e+000  1.9200288e+000  2.3988487e-001  1.9200288e+000  1.9200288e+000 
 2.0656340e+000  0.0000000e+000  0.0000000e+000  0.0000000e+000  0.0000000e+000  1.8972142e+000  2.4820898e-001  1.8972142e+000  1.8972142e+000 
 2.2348135e+000  0.0000000e+000  0.0000000e+000  0.0000000e+000  0.0000000e+000  1.8734879e+000  2.5664896e-001  1.8734879e+000  1.8734879e+000 
 2.4158354e+000  0.0000000e+000  0.0000000e+000  0.0000000e+000  0.0000000e+000  1.8488032e+000  2.6521108e-001  1.8488032e+000  1.8488032e+000 
 2.6095285e+000  0.0000000e+000  0.0000000e+000  0.0000000e+000  0.0000000e+000  1.8231044e+000  2.7390179e-001  1.8231044e+000  1.8231044e+000 
 2.8167806e+000  0.0000000e+000  0.0000000e+000  0.0000000e+000  0.0000000e+000  1.7963291e+000  2.8272873e-001  1.7963291e+000  1.7963291e+000 
 3.0385399e+000  0.0000000e+000  0.0000000e+000  0.0000000e+000  0.0000000e+000  1.7684071e+000  2.9170087e-001  1.7684071e+000  1.7684071e+000 
 3.2758224e+000  0.0000000e+000  0.0000000e+000  0.0000000e+000  0.0000000e+000  1.7392570e+000  3.0082938e-001  1.7392570e+000  1.7392570e+000 
 3.5297146e+000  0.0000000e+000  0.0000000e+000  0.0000000e+000  0.0000000e+000  1.7087874e+000  3.1012860e-001  1.7087874e+000  1.7087874e+000 
 3.8013785e+000  0.0000000e+000  0.0000000e+000  0.0000000e+000  0.0000000e+000  1.6768943e+000  3.1961679e-001  1.6768943e+000  1.6768943e+000 
 4.0920601e+000  0.0000000e+000  0.0000000e+000  0.0000000e+000  0.0000000e+000  1.6434596e+000  3.2931671e-001  1.6434596e+000  1.6434596e+000 
 4.4030900e+000  0.0000000e+000  0.0000000e+000  0.0000000e+000  0.0000000e+000  1.6083493e+000  3.3925679e-001  1.6083493e+000  1.6083493e+000 
 4.7358913e+000  0.0000000e+000  0.0000000e+000  0.0000000e+000  0.0000000e+000  1.5714158e+000  3.4947133e-001  1.5714158e+000  1.5714158e+000 
 5.0919890e+000  0.0000000e+000  0.0000000e+000  0.0000000e+000  0.0000000e+000  1.5324917e+000  3.6000142e-001  1.5324917e+000  1.5324917e+000 
 5.4730139e+000  0.0000000e+000  0.0000000e+000  0.0000000e+000  0.0000000e+000  1.4913937e+000  3.7089485e-001  1.4913937e+000  1.4913937e+000 
 5.8807087e+000  0.0000000e+000  0.0000000e+000  0.0000000e+000  0.0000000e+000  1.4479207e+000  3.8220614e-001  1.4479207e+000  1.4479207e+000 
 6.3169422e+000  0.0000000e+000  0.0000000e+000  0.0000000e+000  0.0000000e+000  1.4018539e+000  3.9399654e-001  1.4018539e+000  1.4018539e+000 
 6.7837143e+000  0.0000000e+000  0.0000000e+000  0.0000000e+000  0.0000000e+000  1.3529569e+000  4.0633342e-001  1.3529569e+000  1.3529569e+000 
 7.2831593e+000  0.0000000e+000  0.0000000e+000  0.0000000e+000  0.0000000e+000  1.3009777e+000  4.1928965e-001  1.3009777e+000  1.3009777e+000 
 7.8175659e+000  0.0000000e+000  0.0000000e+000  0.0000000e+000  0.0000000e+000  1.2456477e+000  4.3294305e-001  1.2456477e+000  1.2456477e+000 
 8.3893795e+000  0.0000000e+000  0.0000000e+000  0.0000000e+000  0.0000000e+000  1.1866826e+000  4.4737580e-001  1.1866826e+000  1.1866826e+000 
 9.0012217e+000  0.0000000e+000  0.0000000e+000  0.0000000e+000  0.0000000e+000  1.1237817e+000  4.6267369e-001  1.1237817e+000  1.1237817e+000 
 9.6558924e+000  0.0000000e+000  0.0000000e+000  0.0000000e+000  0.0000000e+000  1.0566289e+000  4.7892568e-001  1.0566289e+000  1.0566289e+000 
 1.0356388e+001  0.0000000e+000  0.0000000e+000  0.0000000e+000  0.0000000e+000  9.8489159e-001  4.9622375e-001  9.8489159e-001  9.8489159e-001 
 1.1105920e+001  0.0000000e+000  0.0000000e+000  0.0000000e+000  0.0000000e+000  9.0821928e-001  5.1466268e-001  9.0821928e-001  9.0821928e-001 
 1.1907920e+001  0.0000000e+000  0.0000000e+000  0.0000000e+000  0.0000000e+000  8.2624251e-001  5.3434050e-001  8.2624251e-001  8.2624251e-001 
 1.2766060e+001  0.0000000e+000  0.0000000e+000  0.0000000e+000  0.0000000e+000  7.3857182e-001  5.5535805e-001  7.3857182e-001  7.3857182e-001 
 1.3684270e+001  0.0000000e+000  0.0000000e+000  0.0000000e+000  0.0000000e+000  6.4479417e-001  5.7782078e-001  6.4479417e-001  6.4479417e-001 
 1.4666756e+001  0.0000000e+000  0.0000000e+000  0.0000000e+000  0.0000000e+000  5.4447192e-001  6.0183793e-001  5.4447192e-001  5.4447192e-001 
 1.5718015e+001  0.0000000e+000  0.0000000e+000  0.0000000e+000  0.0000000e+000  4.3713960e-001  6.2752479e-001  4.3713960e-001  4.3713960e-001 
 1.6842865e+001  0.0000000e+000  0.0000000e+000  0.0000000e+000  0.0000000e+000  3.2230136e-001  6.5500224e-001  3.2230136e-001  3.2230136e-001 
 1.8046452e+001  0.0000000e+000  0.0000000e+000  0.0000000e+000  0.0000000e+000  1.9942950e-001  6.8439895e-001  1.9942950e-001  1.9942950e-001 
 1.9334295e+001  0.0000000e+000  0.0000000e+000  0.0000000e+000  0.0000000e+000  6.7958519e-002  7.1585023e-001  6.7958519e-002  6.7958519e-002 
 2.0000000e+001  0.0000000e+000  0.0000000e+000  0.0000000e+000  0.0000000e+000 -6.4933118e-007  7.3210782e-001 -6.4933118e-007 -6.4933118e-007 
 0.0000000e+000  1.5686335e-002  1.0000000e+000  0.0000000e+000  1.0000000e+000  3.3748605e+000  0.0000000e+000  3.3748605e+000  3.8748605e+000 
 1.2291715e-002  1.5686335e-002  9.3389511e-001  1.7711630e-001  9.5054209e-001  3.2046664e+000  4.6233768e-003  3.2046664e+000  3.6564314e+000 
 3.7736509e-002  1.5686335e-002  7.8951120e-001  1.5889180e-001  8.0534124e-001  2.8523519e+000  1.4112948e-002  2.8523519e+000  3.1766391e+000 
 6.4963534e-002  1.5686335e-002  6.3162655e-001  1.0744749e-001  6.4070046e-001  2.6131210e+000  2.4137117e-002  2.6131210e+000  2.8183696e+000 
 9.4095588e-002  1.5686335e-002  4.9740326e-001  6.1665166e-002  5.0121111e-001  2.4581225e+000  3.4248944e-002  2.4581225e+000  2.5837288e+000 
 1.2526625e-001  1.5686335e-002  3.9805749e-001  3.0964987e-002  3.9926007e-001  2.3610187e+000  4.3970026e-002  2.3610187e+000  2.4407229e+000 
 1.5861896e-001  1.5686335e-002  3.2917652e-001  1.3359289e-002  3.2944748e-001  2.3042169e+000  5.3089783e-002  2.3042169e+000  2.3584847e+000 
 1.9430619e-001  1.5686335e-002  2.8254724e-001  4.8861736e-003  2.8258950e-001  2.2711208e+000  6.1659466e-002  2.2711208e+000  2.3110492e+000 
 2.3249130e-001  1.5686335e-002  2.5032917e-001  1.5637133e-003  2.5033405e-001  2.2494953e+000  6.9841832e-002  2.2494953e+000  2.2808290e+000 
 2.7334976e-001  1.5686335e-002  2.2675569e-001  5.6368113e-004  2.2675639e-001  2.2326074e+000  7.7785641e-002  2.2326074e+000  2.2583165e+000 
 3.1706923e-001  1.5686335e-002  2.0839302e-001  3.6549169e-004  2.0839335e-001  2.2175605e+000  8.5585877e-002  2.2175605e+000  2.2392745e+000 
 3.6384889e-001  1.5686335e-002  1.9343692e-001  3.5573979e-004  1.9343725e-001  2.2033055e+000  9.3293697e-002  2.2033055e+000  2.2220144e+000 
 4.1390228e-001  1.5686335e-002  1.8095621e-001  3.4512259e-004  1.8095654e-001  2.1894922e+000  1.0093648e-001  2.1894922e+000  2.2058649e+000 
 4.6745992e-001  1.5686335e-002  1.7043498e-001  3.1115883e-004  1.7043526e-001  2.1759174e+000  1.0853150e-001  2.1759174e+000  2.1904414e+000 
 5.2476656e-001  1.5686335e-002  1.6151391e-001  2.7124534e-004  1.6151413e-001  2.1623764e+000  1.1609308e-001  2.1623764e+000  2.1754198e+000 
 5.8608472e-001  1.5686335e-002  1.5390570e-001  2.3214657e-004  1.5390588e-001  2.1487005e+000  1.2363308e-001  2.1487005e+000  2.1605439e+000 
 6.5169525e-001  1.5686335e-002  1.4737611e-001  1.9882141e-004  1.4737624e-001  2.1347418e+000  1.3116235e-001  2.1347418e+000  2.1456017e+000 
 7.2189790e-001  1.5686335e-002  1.4173776e-001  1.6951765e-004  1.4173786e-001  2.1203897e+000  1.3869040e-001  2.1203897e+000  2.1304345e+000 
 7.9701531e-001  1.5686335e-002  1.3683376e-001  1.4625126e-004  1.3683383e-001  2.1055417e+000  1.4622805e-001  2.1055417e+000  2.1149035e+000 
 8.7739104e-001  1.5686335e-002  1.3253176e-001  1.2688583e-004  1.3253182e-001  2.0901306e+000  1.5378588e-001  2.0901306e+000  2.0989130e+000 
 9.6339333e-001  1.5686335e-002  1.2872557e-001  1.1111815e-004  1.2872562e-001  2.0741022e+000  1.6137473e-001  2.0741022e+000  2.0823872e+000 
 1.0554160e+000  1.5686335e-002  1.2532806e-001  9.7793061e-005  1.2532811e-001  2.0574169e+000  1.6900530e-001  2.0574169e+000  2.0652704e+000 
 1.1538795e+000  1.5686335e-002  1.2227137e-001  8.6346699e-005  1.2227140e-001  2.0400465e+000  1.7668776e-001  2.0400465e+000  2.0475216e+000 
 1.2592361e+000  1.5686335e-002  1.1949623e-001  7.7019438e-005  1.1949625e-001  2.0219603e+000  1.8443358e-001  2.0219603e+000  2.0290999e+000 
 1.3719671e+000  1.5686335e-002  1.1695479e-001  6.8605827e-005  1.1695481e-001  2.0031445e+000  1.9225308e-001  2.0031445e+000  2.0099838e+000 
 1.4925885e+000  1.5686335e-002  1.1461563e-001  6.1108287e-005  1.1461564e-001  1.9835807e+000  2.0015536e-001  1.9835807e+000  1.9901491e+000 
 1.6216545e+000  1.5686335e-002  1.1245378e-001  5.4362299e-005  1.1245380e-001  1.9632444e+000  2.0814870e-001  1.9632444e+000  1.9695674e+000 
 1.7597550e+000  1.5686335e-002  1.1044959e-001  4.8242251e-005  1.1044960e-001  1.9421095e+000  2.1624050e-001  1.9421095e+000  1.9482090e+000 
 1.9075224e+000  1.5686335e-002  1.0858865e-001  4.2679370e-005  1.0858866e-001  1.9201455e+000  2.2443721e-001  1.9201455e+000  1.9260412e+000 
 2.0656340e+000  1.5686335e-002  1.0685980e-001  3.7787235e-005  1.0685981e-001  1.8973149e+000  2.3274513e-001  1.8973149e+000  1.9030244e+000 
 2.2348135e+000  1.5686335e-002  1.0525371e-001  3.3200602e-005  1.0525372e-001  1.8735752e+000  2.4117030e-001  1.8735752e+000  1.8791144e+000 
 2.4158354e+000  1.5686335e-002  1.0376310e-001  2.9189352e-005  1.0376310e-001  1.8488784e+000  2.4971887e-001  1.8488784e+000  1.8542618e+000 
 2.6095285e+000  1.5686335e-002  1.0238279e-001  2.5453739e-005  1.0238279e-001  1.8231692e+000  2.5839722e-001  1.8231692e+000  1.8284104e+000 
 2.8167806e+000  1.5686335e-002  1.0110836e-001  2.2212251e-005  1.0110836e-001  1.7963848e+000  2.6721284e-001  1.7963848e+000  1.8014963e+000 
 3.0385399e+000  1.5686335e-002  9.9936523e-002  1.9235797e-005  9.9936523e-002  1.7684547e+000  2.7617460e-001  1.7684547e+000  1.7734483e+000 
 3.2758224e+000  1.5686335e-002  9.8864652e-002  1.6473423e-005  9.8864652e-002  1.7392975e+000  2.8529370e-001  1.7392975e+000  1.7441846e+000 
 3.5297146e+000  1.5686335e-002  9.7890377e-002  1.4064564e-005  9.7890377e-002  1.7088217e+000  2.9458436e-001  1.7088217e+000  1.7136129e+000 
 3.8013785e+000  1.5686335e-002  9.7011417e-002  1.1917741e-005  9.7011417e-002  1.6769228e+000  3.0406481e-001  1.6769228e+000  1.6816283e+000 
 4.0920601e+000  1.5686335e-002  9.6225463e-002  9.9437848e-006  9.6225463e-002  1.6434832e+000  3.1375781e-001  1.6434832e+000  1.6481128e+000 
 4.4030900e+000  1.5686335e-002  9.5529705e-002  8.1818480e-006  9.5529705e-002  1.6083688e+000  3.2369173e-001  1.6083688e+000  1.6129317e+000 
 4.7358913e+000  1.5686335e-002  9.4920784e-002  6.7621609e-006  9.4920784e-002  1.5714315e+000  3.3390084e-001  1.5714315e+000  1.5759364e+000 
 5.0919890e+000  1.5686335e-002  9.4394624e-002  5.4211359e-006  9.4394624e-002  1.5325042e+000  3.4442621e-001  1.5325042e+000  1.5369594e+000 
 5.4730139e+000  1.5686335e-002  9.3946144e-002  4.3130362e-006  9.3946144e-002  1.4914037e+000  3.5531557e-001  1.4914037e+000  1.4958166e+000 
 5.8807087e+000  1.5686335e-002  9.3569741e-002  3.3333004e-006  9.3569741e-002  1.4479284e+000  3.6662343e-001  1.4479284e+000  1.4523060e+000 
 6.3169422e+000  1.5686335e-002  9.3258977e-002  2.5992729e-006  9.3258977e-002  1.4018598e+000  3.7841094e-001  1.4018598e+000  1.4062084e+000 
 6.7837143e+000  1.5686335e-002  9.3007013e-002  1.9108393e-006  9.3007013e-002  1.3529613e+000  3.9074546e-001  1.3529613e+000  1.3572865e+000 
 7.2831593e+000  1.5686335e-002  9.2806436e-002  1.4316371e-006  9.2806436e-002  1.3009809e+000  4.0369979e-001  1.3009809e+000  1.3052875e+000 
 7.8175659e+000  1.5686335e-002  9.2650041e-002  1.0537178e-006  9.2650041e-002  1.2456501e+000  4.1735169e-001  1.2456501e+000  1.2499421e+000 
 8.3893795e+000  1.5686335e-002  9.2530720e-002  7.5595199e-007  9.2530720e-002  1.1866841e+000  4.3178326e-001  1.1866841e+000  1.1909651e+000 
 9.0012217e+000  1.5686335e-002  9.2441753e-002  4.6536701e-007  9.2441753e-002  1.1237828e+000  4.4708025e-001  1.1237828e+000  1.1280555e+000 
 9.6558924e+000  1.5686335e-002  9.2377059e-002  2.7873509e-007  9.2377059e-002  1.0566298e+000  4.6333158e-001  1.0566298e+000  1.0608965e+000 
 1.0356388e+001  1.5686335e-002  9.2331231e-002  2.1073301e-007  9.2331231e-002  9.8489213e-001  4.8062918e-001  9.8489213e-001  9.8915464e-001 
 1.1105920e+001  1.5686335e-002  9.2299610e-002  1.6174154e-007  9.2299610e-002  9.0821964e-001  4.9906781e-001  9.0821964e-001  9.1247922e-001 
 1.1907920e+001  1.5686335e-002  9.2278428e-002  1.0718364e-007  9.2278428e-002  8.2624274e-001  5.1874536e-001  8.2624274e-001  8.3050042e-001 
 1.2766060e+001  1.5686335e-002  9.2264704e-002  4.8693177e-008  9.2264704e-002  7.3857194e-001  5.3976279e-001  7.3857194e-001  7.4282831e-001 
 1.3684270e+001  1.5686335e-002  9.2256047e-002  3.1801545e-008  9.2256047e-002  6.4479423e-001  5.6222540e-001  6.4479423e-001  6.4904982e-001 
 1.4666756e+001  1.5686335e-002  9.2250802e-002  3.5238742e-008  9.2250802e-002  5.4447198e-001  5.8624250e-001  5.4447198e-001  5.4872710e-001 
 1.5718015e+001  1.5686335e-002  9.2247754e-002  1.4021959e-008  9.2247754e-002  4.3713966e-001  6.1192930e-001  4.3713966e-001  4.4139448e-001 
 1.6842865e+001  1.5686335e-002  9.2246026e-002  1.6799325e-008  9.2246026e-002  3.2230145e-001  6.3940674e-001  3.2230145e-001  3.2655612e-001 
 1.8046452e+001  1.5686335e-002  9.2245094e-002  2.6389755e-009  9.2245094e-002  1.9942951e-001  6.6880345e-001  1.9942951e-001  2.0368409e-001 
 1.9334295e+001  1.5686335e-002  9.2244521e-002 -3.5135695e-008  9.2244521e-002  6.7958407e-002  7.0025474e-001  6.7958407e-002  7.2212934e-002 
 2.0000000e+001  1.5686335e-002  9.2244528e-002 -3.8643339e-008  9.2244528e-002  0.0000000e+000  7.1651232e-001  0.0000000e+000  4.2545265e-003 
 0.0000000e+000  4.8627645e-002  1.0000000e+000  0.0000000e+000  1.0000000e+000  2.8455324e+000  0.0000000e+000  2.8455324e+000  3.3455324e+000 
 1.2291715e-002  4.8627645e-002  1.0361192e+000  1.2552482e-001  1.0436951e+000  2.7823837e+000  7.2262774e-004  2.7823837e+000  3.3270335e+000 
 3.7736509e-002  4.8627645e-002  1.0746231e+000  2.1820682e-001  1.0965532e+000  2.6516616e+000  3.5830489e-003  2.6516616e+000  3.2528760e+000 
 6.4963534e-002  4.8627645e-002  1.0654187e+000  2.1928868e-001  1.0877521e+000  2.5373273e+000  7.9309456e-003  2.5373273e+000  3.1289296e+000 
 9.4095588e-002  4.8627645e-002  1.0183498e+000  1.8738377e-001  1.0354463e+000  2.4490347e+000  1.3464728e-002  2.4490347e+000  2.9851091e+000 
 1.2526625e-001  4.8627645e-002  9.4902158e-001  1.4163280e-001  9.5953208e-001  2.3822441e+000  1.9816216e-002  2.3822441e+000  2.8425951e+000 
 1.5861896e-001  4.8627645e-002  8.7069315e-001  9.9595822e-002  8.7637085e-001  2.3333771e+000  2.6670134e-002  2.3333771e+000  2.7173901e+000 
 1.9430619e-001  4.8627645e-002  7.9390585e-001  6.8238400e-002  7.9683310e-001  2.2975979e+000  3.3769224e-002  2.2975979e+000  2.6150694e+000 
 2.3249130e-001  4.8627645e-002  7.2468442e-001  4.7293257e-002  7.2622597e-001  2.2701194e+000  4.0984172e-002  2.2701194e+000  2.5338216e+000 
 2.7334976e-001  4.8627645e-002  6.6491866e-001  3.3823483e-002  6.6577840e-001  2.2476845e+000  4.8255835e-002  2.2476845e+000  2.4693148e+000 
 3.1706923e-001  4.8627645e-002  6.1434793e-001  2.5010319e-002  6.1485684e-001  2.2284260e+000  5.5557638e-002  2.2284260e+000  2.4174504e+000 
 3.6384889e-001  4.8627645e-002  5.7177353e-001  1.8998312e-002  5.7208908e-001  2.2112231e+000  6.2875353e-002  2.2112231e+000  2.3748660e+000 
 4.1390228e-001  4.8627645e-002  5.3580385e-001  1.4685293e-002  5.3600508e-001  2.1953840e+000  7.0202693e-002  2.1953840e+000  2.3390348e+000 
 4.6745992e-001  4.8627645e-002  5.0525457e-001  1.1478585e-002  5.0538492e-001  2.1803920e+000  7.7537365e-002  2.1803920e+000  2.3080990e+000 
 5.2476656e-001  4.8627645e-002  4.7917628e-001  9.0607423e-003  4.7926193e-001  2.1658282e+000  8.4881499e-002  2.1658282e+000  2.2806742e+000 
 5.8608472e-001  4.8627645e-002  4.5680305e-001  7.2116111e-003  4.5685998e-001  2.1513977e+000  9.2237622e-002  2.1513977e+000  2.2557583e+000 
 6.5169525e-001  4.8627645e-002  4.3751034e-001  5.7875826e-003  4.3754861e-001  2.1368713e+000  9.9609882e-002  2.1368713e+000  2.2325957e+000 
 7.2189790e-001  4.8627645e-002  4.2079324e-001  4.6778913e-003  4.2081922e-001  2.1220875e+000  1.0700252e-001  2.1220875e+000  2.2106318e+000 
 7.9701531e-001  4.8627645e-002  4.0622550e-001  3.8153902e-003  4.0624341e-001  2.1069074e+000  1.1442272e-001  2.1069074e+000  2.1894243e+000 
 8.7739104e-001  4.8627645e-002  3.9344448e-001  3.1390367e-003  3.9345700e-001  2.0912395e+000  1.2187806e-001  2.0912395e+000  2.1686437e+000 
 9.6339333e-001  4.8627645e-002  3.8215077e-001  2.6060413e-003  3.8215965e-001  2.0750110e+000  1.2937696e-001  2.0750110e+000  2.1480341e+000 
 1.0554160e+000  4.8627645e-002  3.7209451e-001  2.1823263e-003  3.7210092e-001  2.0581691e+000  1.3692820e-001  2.0581691e+000  2.1273987e+000 
 1.1538795e+000  4.8627645e-002  3.6307555e-001  1.8425713e-003  3.6308023e-001  2.0406744e+000  1.4454025e-001  2.0406744e+000  2.1065881e+000 
 1.2592361e+000  4.8627645e-002  3.5491940e-001  1.5705955e-003  3.5492289e-001  2.0224893e+000  1.5222344e-001  2.0224893e+000  2.0854745e+000 
 1.3719671e+000  4.8627645e-002  3.4748271e-001  1.3476986e-003  3.4748533e-001  2.0035939e+000  1.5998699e-001  2.0035939e+000  2.0639670e+000 
 1.4925885e+000  4.8627645e-002  3.4066477e-001  1.1617128e-003  3.4066674e-001  1.9839647e+000  1.6783902e-001  1.9839647e+000  2.0419917e+000 
 1.6216545e+000  4.8627645e-002  3.3438653e-001  1.0050648e-003  3.3438805e-001  1.9635741e+000  1.7578702e-001  1.9635741e+000  2.0194817e+000 
 1.7597550e+000  4.8627645e-002  3.2858562e-001  8.7163562e-004  3.2858679e-001  1.9423935e+000  1.8383773e-001  1.9423935e+000  1.9963782e+000 
 1.9075224e+000  4.8627645e-002  3.2321510e-001  7.5670186e-004  3.2321599e-001  1.9203908e+000  1.9199713e-001  1.9203908e+000  1.9726251e+000 
 2.0656340e+000  4.8627645e-002  3.1823835e-001  6.5702223e-004  3.1823903e-001  1.8975267e+000  2.0027103e-001  1.8975267e+000  1.9481648e+000 
 2.2348135e+000  4.8627645e-002  3.1362563e-001  5.7033304e-004  3.1362614e-001  1.8737583e+000  2.0866513e-001  1.8737583e+000  1.9229389e+000 
 2.4158354e+000  4.8627645e-002  3.0935344e-001  4.9420365e-004  3.0935383e-001  1.8490363e+000  2.1718527e-001  1.8490363e+000  1.8968862e+000 
 2.6095285e+000  4.8627645e-002  3.0540478e-001  4.2714356e-004  3.0540508e-001  1.8233054e+000  2.2583763e-001  1.8233054e+000  1.8699415e+000 
 2.8167806e+000  4.8627645e-002  3.0176535e-001  3.6783889e-004  3.0176559e-001  1.7965016e+000  2.3462944e-001  1.7965016e+000  1.8420329e+000 
 3.0385399e+000  4.8627645e-002  2.9842412e-001  3.1539434e-004  2.9842430e-001  1.7685544e+000  2.4356943e-001  1.7685544e+000  1.8130829e+000 
 3.2758224e+000  4.8627645e-002  2.9537246e-001  2.6889564e-004  2.9537258e-001  1.7393825e+000  2.5266877e-001  1.7393825e+000  1.7830050e+000 
 3.5297146e+000  4.8627645e-002  2.9260242e-001  2.2762266e-004  2.9260251e-001  1.7088934e+000  2.6194143e-001  1.7088934e+000  1.7517015e+000 
 3.8013785e+000  4.8627645e-002  2.9010659e-001  1.9112123e-004  2.9010665e-001  1.6769829e+000  2.7140564e-001  1.6769829e+000  1.7190638e+000 
 4.0920601e+000  4.8627645e-002  2.8787744e-001  1.5908098e-004  2.8787747e-001  1.6435330e+000  2.8108409e-001  1.6435330e+000  1.6849697e+000 
 4.4030900e+000  4.8627645e-002  2.8590620e-001  1.3098468e-004  2.8590623e-001  1.6084098e+000  2.9100507e-001  1.6084098e+000  1.6492809e+000 
 4.7358913e+000  4.8627645e-002  2.8418255e-001  1.0645108e-004  2.8418258e-001  1.5714649e+000  3.0120280e-001  1.5714649e+000  1.6118448e+000 
 5.0919890e+000  4.8627645e-002  2.8269437e-001  8.5459913e-005  2.8269437e-001  1.5325310e+000  3.1171826e-001  1.5325310e+000  1.5724890e+000 
 5.4730139e+000  4.8627645e-002  2.8142685e-001  6.7588953e-005  2.8142685e-001  1.4914247e+000  3.2259908e-001  1.4914247e+000  1.5310252e+000 
 5.8807087e+000  4.8627645e-002  2.8036356e-001  5.2611096e-005  2.8036356e-001  1.4479449e+000  3.3389971e-001  1.4479449e+000  1.4872468e+000 
 6.3169422e+000  4.8627645e-002  2.7948633e-001  4.0341583e-005  2.7948633e-001  1.4018723e+000  3.4568119e-001  1.4018723e+000  1.4409286e+000 
 6.7837143e+000  4.8627645e-002  2.7877519e-001  3.0218571e-005  2.7877519e-001  1.3529707e+000  3.5801074e-001  1.3529707e+000  1.3918285e+000 
 7.2831593e+000  4.8627645e-002  2.7820942e-001  2.2344997e-005  2.7820942e-001  1.3009880e+000  3.7096107e-001  1.3009880e+000  1.3396882e+000 
 7.8175659e+000  4.8627645e-002  2.7776831e-001  1.6163372e-005  2.7776831e-001  1.2456551e+000  3.8460982e-001  1.2456551e+000  1.2842327e+000 
 8.3893795e+000  4.8627645e-002  2.7743188e-001  1.1350956e-005  2.7743188e-001  1.1866877e+000  3.9903891e-001  1.1866877e+000  1.2251719e+000 
 9.0012217e+000  4.8627645e-002  2.7718106e-001  7.8148796e-006  2.7718106e-001  1.1237853e+000  4.1433403e-001  1.1237853e+000  1.1622000e+000 
 9.6558924e+000  4.8627645e-002  2.7699867e-001  5.2691894e-006  2.7699867e-001  1.0566314e+000  4.3058398e-001  1.0566314e+000  1.0949956e+000 
 1.0356388e+001  4.8627645e-002  2.7686948e-001  3.4717402e-006  2.7686948e-001  9.8489320e-001  4.4788060e-001  9.8489320e-001  1.0232216e+000 
 1.1105920e+001  4.8627645e-002  2.7678037e-001  2.1877231e-006  2.7678037e-001  9.0822029e-001  4.6631852e-001  9.0822029e-001  9.4652396e-001 
 1.1907920e+001  4.8627645e-002  2.7672064e-001  1.3304468e-006  2.7672064e-001  8.2624316e-001  4.8599559e-001  8.2624316e-001  8.6453032e-001 
 1.2766060e+001  4.8627645e-002  2.7668196e-001  8.3268060e-007  2.7668196e-001  7.3857218e-001  5.0701272e-001  7.3857218e-001  7.7684861e-001 
 1.3684270e+001  4.8627645e-002  2.7665758e-001  4.7054459e-007  2.7665758e-001  6.4479434e-001  5.2947509e-001  6.4479434e-001  6.8306404e-001 
 1.4666756e+001  4.8627645e-002  2.7664280e-001  2.8444887e-007  2.7664280e-001  5.4447204e-001  5.5349207e-001  5.4447204e-001  5.8273768e-001 
 1.5718015e+001  4.8627645e-002  2.7663419e-001  1.3355843e-007  2.7663419e-001  4.3713972e-001  5.7917881e-001  4.3713972e-001  4.7540295e-001 
 1.6842865e+001  4.8627645e-002  2.7662933e-001  7.1393217e-008  2.7662933e-001  3.2230148e-001  6.0665619e-001  3.2230148e-001  3.6056337e-001 
 1.8046452e+001  4.8627645e-002  2.7662671e-001  3.6971183e-008  2.7662671e-001  1.9942953e-001  6.3605285e-001  1.9942953e-001  2.3769069e-001 
 1.9334295e+001  4.8627645e-002  2.7662510e-001  5.5550888e-008  2.7662510e-001  6.7958161e-002  6.6750413e-001  6.7958161e-002  1.0621888e-001 
 2.0000000e+001  4.8627645e-002  2.7662510e-001  5.1583552e-008  2.7662510e-001  0.0000000e+000  6.8376172e-001  0.0000000e+000  3.8260721e-002 
 0.0000000e+000  8.4863111e-002  1.0000000e+000  0.0000000e+000  1.0000000e+000  2.6028867e+000  0.0000000e+000  2.6028867e+000  3.1028867e+000 
 1.2291715e-002  8.4863111e-002  1.0124007e+000  5.3971801e-002  1.0138384e+000  2.5892391e+000  1.1748575e-004  2.5892391e+000  3.1031733e+000 
 3.7736509e-002  8.4863111e-002  1.0531428e+000  1.3465336e-001  1.0617162e+000  2.5609877e+000  7.6967955e-004  2.5609877e+000  3.1246083e+000 
 6.4963534e-002  8.4863111e-002  1.0985823e+000  1.7901202e-001  1.1130716e+000  2.5012250e+000  2.1245771e-003  2.5012250e+000  3.1206892e+000 
 9.4095588e-002  8.4863111e-002  1.1262878e+000  1.8915051e-001  1.1420605e+000  2.4388988e+000  4.2792186e-003  2.4388988e+000  3.0910499e+000 
 1.2526625e-001  8.4863111e-002  1.1301714e+000  1.8062508e-001  1.1445142e+000  2.3824830e+000  7.2214734e-003  2.3824830e+000  3.0374393e+000 
 1.5861896e-001  8.4863111e-002  1.1142428e+000  1.6000664e-001  1.1256727e+000  2.3372533e+000  1.0879558e-002  2.3372533e+000  2.9708228e+000 
 1.9430619e-001  8.4863111e-002  1.0815048e+000  1.3481003e-001  1.0898745e+000  2.3034449e+000  1.5158940e-002  2.3034449e+000  2.8973582e+000 
 2.3249130e-001  8.4863111e-002  1.0386466e+000  1.1027065e-001  1.0444838e+000  2.2768652e+000  1.9969637e-002  2.2768652e+000  2.8223383e+000 
 2.7334976e-001  8.4863111e-002  9.9095637e-001  8.8762484e-002  9.9492377e-001  2.2546473e+000  2.5229091e-002  2.2546473e+000  2.7495840e+000 
 3.1706923e-001  8.4863111e-002  9.4252986e-001  7.0839666e-002  9.4518822e-001  2.2350063e+000  3.0866154e-002  2.2350063e+000  2.6816967e+000 
 3.6384889e-001  8.4863111e-002  8.9586341e-001  5.6430206e-002  8.9763892e-001  2.2170346e+000  3.6800858e-002  2.2170346e+000  2.6199124e+000 
 4.1390228e-001  8.4863111e-002  8.5222495e-001  4.4990059e-002  8.5341167e-001  2.2003059e+000  4.2974260e-002  2.2003059e+000  2.5644617e+000 
 4.6745992e-001  8.4863111e-002  8.1226867e-001  3.5924148e-002  8.1306267e-001  2.1844382e+000  4.9338192e-002  2.1844382e+000  2.5149736e+000 
 5.2476656e-001  8.4863111e-002  7.7624303e-001  2.8772401e-002  7.7677608e-001  2.1690881e+000  5.5858754e-002  2.1690881e+000  2.4707787e+000 
 5.8608472e-001  8.4863111e-002  7.4407303e-001  2.3124013e-002  7.4443227e-001  2.1539977e+000  6.2508516e-002  2.1539977e+000  2.4310873e+000 
 6.5169525e-001  8.4863111e-002  7.1549851e-001  1.8668773e-002  7.1574199e-001  2.1389358e+000  6.9269679e-002  2.1389358e+000  2.3950791e+000 
 7.2189790e-001  8.4863111e-002  6.9018197e-001  1.5143695e-002  6.9034809e-001  2.1237278e+000  7.6129533e-002  2.1237278e+000  2.3620181e+000 