Variables = "x","y", "Velocity_x", "Velocity_y", "Velocity_whole value", "Pressure", "Temperature", "Absolute pressure", "Total pressure"
Zone i=62, j=22
 0.0000000e+000  0.0000000e+000  0.0000000e+000  0.0000000e+000  0.0000000e+000  1.2889301e+000  9.5823623e-007  1.2889301e+000  1.2889301e+000 
 1.2291715e-002  0.0000000e+000  0.0000000e+000  0.0000000e+000  0.0000000e+000  1.2315180e+000  1.9578326e-003  1.2315180e+000  1.2315180e+000 
 3.7736509e-002  0.0000000e+000  0.0000000e+000  0.0000000e+000  0.0000000e+000  1.1126707e+000  6.0087130e-003  1.1126707e+000  1.1126707e+000 
 6.4963534e-002  0.0000000e+000  0.0000000e+000  0.0000000e+000  0.0000000e+000  1.0351305e+000  1.0480165e-002  1.0351305e+000  1.0351305e+000 
 9.4095588e-002  0.0000000e+000  0.0000000e+000  0.0000000e+000  0.0000000e+000  9.7891849e-001  1.5514941e-002  9.7891849e-001  9.7891849e-001 
 1.2526625e-001  0.0000000e+000  0.0000000e+000  0.0000000e+000  0.0000000e+000  9.2865723e-001  2.1210086e-002  9.2865723e-001  9.2865723e-001 
 1.5861896e-001  0.0000000e+000  0.0000000e+000  0.0000000e+000  0.0000000e+000  8.8559192e-001  2.7539613e-002  8.8559192e-001  8.8559192e-001 
 1.9430619e-001  0.0000000e+000  0.0000000e+000  0.0000000e+000  0.0000000e+000  8.5192025e-001  3.4331754e-002  8.5192025e-001  8.5192025e-001 
 2.3249130e-001  0.0000000e+000  0.0000000e+000  0.0000000e+000  0.0000000e+000  8.2838017e-001  4.1189421e-002  8.2838017e-001  8.2838017e-001 
 2.7334976e-001  0.0000000e+000  0.0000000e+000  0.0000000e+000  0.0000000e+000  8.1409734e-001  4.7638960e-002  8.1409734e-001  8.1409734e-001 
 3.1706923e-001  0.0000000e+000  0.0000000e+000  0.0000000e+000  0.0000000e+000  8.0657572e-001  5.3429887e-002  8.0657572e-001  8.0657572e-001 
 3.6384889e-001  0.0000000e+000  0.0000000e+000  0.0000000e+000  0.0000000e+000  8.0269790e-001  5.8591787e-002  8.0269790e-001  8.0269790e-001 
 4.1390228e-001  0.0000000e+000  0.0000000e+000  0.0000000e+000  0.0000000e+000  7.9978472e-001  6.3324243e-002  7.9978472e-001  7.9978472e-001 
 4.6745992e-001  0.0000000e+000  0.0000000e+000  0.0000000e+000  0.0000000e+000  7.9632521e-001  6.7840613e-002  7.9632521e-001  7.9632521e-001 
 5.2476656e-001  0.0000000e+000  0.0000000e+000  0.0000000e+000  0.0000000e+000  7.9181993e-001  7.2288468e-002  7.9181993e-001  7.9181993e-001 
 5.8608472e-001  0.0000000e+000  0.0000000e+000  0.0000000e+000  0.0000000e+000  7.8635943e-001  7.6742366e-002  7.8635943e-001  7.8635943e-001 
 6.5169525e-001  0.0000000e+000  0.0000000e+000  0.0000000e+000  0.0000000e+000  7.8021729e-001  8.1225276e-002  7.8021729e-001  7.8021729e-001 
 7.2189790e-001  0.0000000e+000  0.0000000e+000  0.0000000e+000  0.0000000e+000  7.7362573e-001  8.5736789e-002  7.7362573e-001  7.7362573e-001 
 7.9701531e-001  0.0000000e+000  0.0000000e+000  0.0000000e+000  0.0000000e+000  7.6671559e-001  9.0272911e-002  7.6671559e-001  7.6671559e-001 
 8.7739104e-001  0.0000000e+000  0.0000000e+000  0.0000000e+000  0.0000000e+000  7.5953293e-001  9.4831780e-002  7.5953293e-001  7.5953293e-001 
 9.6339333e-001  0.0000000e+000  0.0000000e+000  0.0000000e+000  0.0000000e+000  7.5206888e-001  9.9419452e-002  7.5206888e-001  7.5206888e-001 
 1.0554160e+000  0.0000000e+000  0.0000000e+000  0.0000000e+000  0.0000000e+000  7.4431205e-001  1.0404366e-001  7.4431205e-001  7.4431205e-001 
 1.1538795e+000  0.0000000e+000  0.0000000e+000  0.0000000e+000  0.0000000e+000  7.3624521e-001  1.0871312e-001  7.3624521e-001  7.3624521e-001 
 1.2592361e+000  0.0000000e+000  0.0000000e+000  0.0000000e+000  0.0000000e+000  7.2785574e-001  1.1343762e-001  7.2785574e-001  7.2785574e-001 
 1.3719671e+000  0.0000000e+000  0.0000000e+000  0.0000000e+000  0.0000000e+000  7.1914142e-001  1.1822503e-001  7.1914142e-001  7.1914142e-001 
 1.4925885e+000  0.0000000e+000  0.0000000e+000  0.0000000e+000  0.0000000e+000  7.1009755e-001  1.2308114e-001  7.1009755e-001  7.1009755e-001 
 1.6216545e+000  0.0000000e+000  0.0000000e+000  0.0000000e+000  0.0000000e+000  7.0071739e-001  1.2801357e-001  7.0071739e-001  7.0071739e-001 
 1.7597550e+000  0.0000000e+000  0.0000000e+000  0.0000000e+000  0.0000000e+000  6.9099665e-001  1.3302508e-001  6.9099665e-001  6.9099665e-001 
 1.9075224e+000  0.0000000e+000  0.0000000e+000  0.0000000e+000  0.0000000e+000  6.8091780e-001  1.3812274e-001  6.8091780e-001  6.8091780e-001 
 2.0656340e+000  0.0000000e+000  0.0000000e+000  0.0000000e+000  0.0000000e+000  6.7048001e-001  1.4331186e-001  6.7048001e-001  6.7048001e-001 
 2.2348135e+000  0.0000000e+000  0.0000000e+000  0.0000000e+000  0.0000000e+000  6.5966743e-001  1.4859450e-001  6.5966743e-001  6.5966743e-001 
 2.4158354e+000  0.0000000e+000  0.0000000e+000  0.0000000e+000  0.0000000e+000  6.4846289e-001  1.5397790e-001  6.4846289e-001  6.4846289e-001 
 2.6095285e+000  0.0000000e+000  0.0000000e+000  0.0000000e+000  0.0000000e+000  6.3685149e-001  1.5946200e-001  6.3685149e-001  6.3685149e-001 
 2.8167806e+000  0.0000000e+000  0.0000000e+000  0.0000000e+000  0.0000000e+000  6.2481374e-001  1.6505606e-001  6.2481374e-001  6.2481374e-001 
 3.0385399e+000  0.0000000e+000  0.0000000e+000  0.0000000e+000  0.0000000e+000  6.1233169e-001  1.7075676e-001  6.1233169e-001  6.1233169e-001 
 3.2758224e+000  0.0000000e+000  0.0000000e+000  0.0000000e+000  0.0000000e+000  5.9938306e-001  1.7657673e-001  5.9938306e-001  5.9938306e-001 
 3.5297146e+000  0.0000000e+000  0.0000000e+000  0.0000000e+000  0.0000000e+000  5.8594781e-001  1.8250726e-001  5.8594781e-001  5.8594781e-001 
 3.8013785e+000  0.0000000e+000  0.0000000e+000  0.0000000e+000  0.0000000e+000  5.7199812e-001  1.8856691e-001  5.7199812e-001  5.7199812e-001 
 4.0920601e+000  0.0000000e+000  0.0000000e+000  0.0000000e+000  0.0000000e+000  5.5751395e-001  1.9473943e-001  5.5751395e-001  5.5751395e-001 
 4.4030900e+000  0.0000000e+000  0.0000000e+000  0.0000000e+000  0.0000000e+000  5.4245794e-001  2.0105083e-001  5.4245794e-001  5.4245794e-001 
 4.7358913e+000  0.0000000e+000  0.0000000e+000  0.0000000e+000  0.0000000e+000  5.2681774e-001  2.0747942e-001  5.2681774e-001  5.2681774e-001 
 5.0919890e+000  0.0000000e+000  0.0000000e+000  0.0000000e+000  0.0000000e+000  5.1055157e-001  2.1405672e-001  5.1055157e-001  5.1055157e-001 
 5.4730139e+000  0.0000000e+000  0.0000000e+000  0.0000000e+000  0.0000000e+000  4.9363580e-001  2.2075079e-001  4.9363580e-001  4.9363580e-001 
 5.8807087e+000  0.0000000e+000  0.0000000e+000  0.0000000e+000  0.0000000e+000  4.7602704e-001  2.2760601e-001  4.7602704e-001  4.7602704e-001 
 6.3169422e+000  0.0000000e+000  0.0000000e+000  0.0000000e+000  0.0000000e+000  4.5769992e-001  2.3457554e-001  4.5769992e-001  4.5769992e-001 
 6.7837143e+000  0.0000000e+000  0.0000000e+000  0.0000000e+000  0.0000000e+000  4.3860230e-001  2.4172001e-001  4.3860230e-001  4.3860230e-001 
 7.2831593e+000  0.0000000e+000  0.0000000e+000  0.0000000e+000  0.0000000e+000  4.1870627e-001  2.4897456e-001  4.1870627e-001  4.1870627e-001 
 7.8175659e+000  0.0000000e+000  0.0000000e+000  0.0000000e+000  0.0000000e+000  3.9795330e-001  2.5642112e-001  3.9795330e-001  3.9795330e-001 
 8.3893795e+000  0.0000000e+000  0.0000000e+000  0.0000000e+000  0.0000000e+000  3.7630630e-001  2.6397014e-001  3.7630630e-001  3.7630630e-001 
 9.0012217e+000  0.0000000e+000  0.0000000e+000  0.0000000e+000  0.0000000e+000  3.5370171e-001  2.7173489e-001  3.5370171e-001  3.5370171e-001 
 9.6558924e+000  0.0000000e+000  0.0000000e+000  0.0000000e+000  0.0000000e+000  3.3008960e-001  2.7959001e-001  3.3008960e-001  3.3008960e-001 
 1.0356388e+001  0.0000000e+000  0.0000000e+000  0.0000000e+000  0.0000000e+000  3.0539814e-001  2.8769535e-001  3.0539814e-001  3.0539814e-001 
 1.1105920e+001  0.0000000e+000  0.0000000e+000  0.0000000e+000  0.0000000e+000  2.7956182e-001  2.9587531e-001  2.7956182e-001  2.7956182e-001 
 1.1907920e+001  0.0000000e+000  0.0000000e+000  0.0000000e+000  0.0000000e+000  2.5249642e-001  3.0435669e-001  2.5249642e-001  2.5249642e-001 
 1.2766060e+001  0.0000000e+000  0.0000000e+000  0.0000000e+000  0.0000000e+000  2.2411565e-001  3.1289428e-001  2.2411565e-001  2.2411565e-001 
 1.3684270e+001  0.0000000e+000  0.0000000e+000  0.0000000e+000  0.0000000e+000  1.9432048e-001  3.2180870e-001  1.9432048e-001  1.9432048e-001 
 1.4666756e+001  0.0000000e+000  0.0000000e+000  0.0000000e+000  0.0000000e+000  1.6299178e-001  3.3076036e-001  1.6299178e-001  1.6299178e-001 
 1.5718015e+001  0.0000000e+000  0.0000000e+000  0.0000000e+000  0.0000000e+000  1.3002871e-001  3.4019831e-001  1.3002871e-001  1.3002871e-001 
 1.6842865e+001  0.0000000e+000  0.0000000e+000  0.0000000e+000  0.0000000e+000  9.5248103e-002  3.4965852e-001  9.5248103e-002  9.5248103e-002 
 1.8046452e+001  0.0000000e+000  0.0000000e+000  0.0000000e+000  0.0000000e+000  5.8586299e-002  3.5974166e-001  5.8586299e-002  5.8586299e-002 
 1.9334295e+001  0.0000000e+000  0.0000000e+000  0.0000000e+000  0.0000000e+000  1.9618163e-002  3.6988369e-001  1.9618163e-002  1.9618163e-002 
 2.0000000e+001  0.0000000e+000  0.0000000e+000  0.0000000e+000  0.0000000e+000 -5.2500621e-004  3.7512624e-001 -5.2500621e-004 -5.2500621e-004 
 0.0000000e+000  1.5686335e-002  1.0000000e+000  0.0000000e+000  1.0000000e+000  1.2234091e+000  0.0000000e+000  1.2234091e+000  1.7234091e+000 
 1.2291715e-002  1.5686335e-002  9.7193724e-001  9.3496323e-002  9.7642386e-001  1.1783612e+000  1.3397726e-003  1.1783612e+000  1.6550629e+000 
 3.7736509e-002  1.5686335e-002  9.0441495e-001  1.0488334e-001  9.1047621e-001  1.0851086e+000  4.1853669e-003  1.0851086e+000  1.4995921e+000 
 6.4963534e-002  1.5686335e-002  8.1289130e-001  9.7792193e-002  8.1875247e-001  1.0200194e+000  7.4166115e-003  1.0200194e+000  1.3551972e+000 
 9.4095588e-002  1.5686335e-002  7.1029705e-001  8.2612492e-002  7.1508509e-001  9.6955872e-001  1.1144059e-002  9.6955872e-001  1.2252321e+000 
 1.2526625e-001  1.5686335e-002  6.1014873e-001  6.4235061e-002  6.1352068e-001  9.2375231e-001  1.5445805e-002  9.2375231e-001  1.1119561e+000 
 1.5861896e-001  1.5686335e-002  5.1783854e-001  4.4454597e-002  5.1974314e-001  8.8458693e-001  2.0310473e-002  8.8458693e-001  1.0196534e+000 
 1.9430619e-001  1.5686335e-002  4.3831229e-001  2.6836194e-002  4.3913305e-001  8.5366321e-001  2.5622426e-002  8.5366321e-001  9.5008212e-001 
 2.3249130e-001  1.5686335e-002  3.7486827e-001  1.3333547e-002  3.7510532e-001  8.3165359e-001  3.1102043e-002  8.3165359e-001  9.0200561e-001 
 2.7334976e-001  1.5686335e-002  3.2776457e-001  4.4215610e-003  3.2779440e-001  8.1783390e-001  3.6406945e-002  8.1783390e-001  8.7155849e-001 
 3.1706923e-001  1.5686335e-002  2.9463458e-001 -4.0253610e-004  2.9463485e-001  8.1003278e-001  4.1344739e-002  8.1003278e-001  8.5343766e-001 
 3.6384889e-001  1.5686335e-002  2.7185911e-001 -2.1710498e-003  2.7186778e-001  8.0548418e-001  4.5916047e-002  8.0548418e-001  8.4244025e-001 
 4.1390228e-001  1.5686335e-002  2.5565684e-001 -2.2147440e-003  2.5566643e-001  8.0186111e-001  5.0243892e-002  8.0186111e-001  8.3454376e-001 
 4.6745992e-001  1.5686335e-002  2.4305598e-001 -1.6418330e-003  2.4306153e-001  7.9781860e-001  5.4469280e-002  7.9781860e-001  8.2735807e-001 
 5.2476656e-001  1.5686335e-002  2.3223542e-001 -9.9268672e-004  2.3223753e-001  7.9290038e-001  5.8689043e-002  7.9290038e-001  8.1986749e-001 
 5.8608472e-001  1.5686335e-002  2.2233759e-001 -5.1111245e-004  2.2233817e-001  7.8715962e-001  6.2949881e-002  7.8715962e-001  8.1187677e-001 
 6.5169525e-001  1.5686335e-002  2.1311006e-001 -2.2365592e-004  2.1311018e-001  7.8082889e-001  6.7262344e-002  7.8082889e-001  8.0353689e-001 
 7.2189790e-001  1.5686335e-002  2.0455801e-001 -7.2202703e-005  2.0455803e-001  7.7410507e-001  7.1621269e-002  7.7410507e-001  7.9502708e-001 
 7.9701531e-001  1.5686335e-002  1.9671802e-001  1.5171655e-006  1.9671802e-001  7.6709771e-001  7.6021187e-002  7.6709771e-001  7.8644669e-001 
 8.7739104e-001  1.5686335e-002  1.8959503e-001  3.6861704e-005  1.8959503e-001  7.5984120e-001  8.0458857e-002  7.5984120e-001  7.7781433e-001 
 9.6339333e-001  1.5686335e-002  1.8312331e-001  5.7809797e-005  1.8312332e-001  7.5232023e-001  8.4938802e-002  7.5232023e-001  7.6908731e-001 
 1.0554160e+000  1.5686335e-002  1.7721559e-001  6.8693647e-005  1.7721561e-001  7.4451947e-001  8.9467116e-002  7.4451947e-001  7.6022214e-001 
 1.1538795e+000  1.5686335e-002  1.7179199e-001  7.5009782e-005  1.7179200e-001  7.3641837e-001  9.4050832e-002  7.3641837e-001  7.5117463e-001 
 1.2592361e+000  1.5686335e-002  1.6677326e-001  7.8203484e-005  1.6677327e-001  7.2800189e-001  9.8698303e-002  7.2800189e-001  7.4190855e-001 
 1.3719671e+000  1.5686335e-002  1.6210012e-001  7.7947661e-005  1.6210014e-001  7.1926600e-001  1.0341617e-001  7.1926600e-001  7.3240423e-001 
 1.4925885e+000  1.5686335e-002  1.5773423e-001  7.5741082e-005  1.5773425e-001  7.1020442e-001  1.0820916e-001  7.1020442e-001  7.2264445e-001 
 1.6216545e+000  1.5686335e-002  1.5363665e-001  7.2343442e-005  1.5363666e-001  7.0080954e-001  1.1308417e-001  7.0080954e-001  7.1261168e-001 
 1.7597550e+000  1.5686335e-002  1.4979228e-001  6.7505105e-005  1.4979230e-001  6.9107646e-001  1.1804325e-001  6.9107646e-001  7.0229530e-001 
 1.9075224e+000  1.5686335e-002  1.4616869e-001  6.3682666e-005  1.4616871e-001  6.8098724e-001  1.2309289e-001  6.8098724e-001  6.9166988e-001 
 2.0656340e+000  1.5686335e-002  1.4274362e-001  5.8565223e-005  1.4274363e-001  6.7054063e-001  1.2823801e-001  6.7054063e-001  6.8072850e-001 
 2.2348135e+000  1.5686335e-002  1.3950905e-001  5.3652257e-005  1.3950907e-001  6.5972048e-001  1.3348012e-001  6.5972048e-001  6.6945189e-001 
 2.4158354e+000  1.5686335e-002  1.3644855e-001  4.8954724e-005  1.3644856e-001  6.4850944e-001  1.3882625e-001  6.4850944e-001  6.5781856e-001 
 2.6095285e+000  1.5686335e-002  1.3355108e-001  4.4437002e-005  1.3355108e-001  6.3689238e-001  1.4427586e-001  6.3689238e-001  6.4581031e-001 
 2.8167806e+000  1.5686335e-002  1.3080353e-001  4.0471747e-005  1.3080353e-001  6.2484968e-001  1.4983812e-001  6.2484968e-001  6.3340443e-001 
 3.0385399e+000  1.5686335e-002  1.2819941e-001  3.6601075e-005  1.2819941e-001  6.1236346e-001  1.5550928e-001  6.1236346e-001  6.2058103e-001 
 3.2758224e+000  1.5686335e-002  1.2572598e-001  3.3101052e-005  1.2572598e-001  5.9941101e-001  1.6130196e-001  5.9941101e-001  6.0731453e-001 
 3.5297146e+000  1.5686335e-002  1.2338202e-001  2.9836001e-005  1.2338202e-001  5.8597249e-001  1.6720703e-001  5.8597249e-001  5.9358406e-001 
 3.8013785e+000  1.5686335e-002  1.2115221e-001  2.7046743e-005  1.2115221e-001  5.7201993e-001  1.7324314e-001  5.7201993e-001  5.7935888e-001 
 4.0920601e+000  1.5686335e-002  1.1904224e-001  2.4179544e-005  1.1904224e-001  5.5753314e-001  1.7939360e-001  5.5753314e-001  5.6461865e-001 
 4.4030900e+000  1.5686335e-002  1.1703204e-001  2.2009490e-005  1.1703204e-001  5.4247499e-001  1.8568464e-001  5.4247499e-001  5.4932326e-001 
 4.7358913e+000  1.5686335e-002  1.1512370e-001  1.9592879e-005  1.1512370e-001  5.2683276e-001  1.9209406e-001  5.2683276e-001  5.3345948e-001 
 5.0919890e+000  1.5686335e-002  1.1330785e-001  1.7736667e-005  1.1330785e-001  5.1056486e-001  1.9865365e-001  5.1056486e-001  5.1698422e-001 
 5.4730139e+000  1.5686335e-002  1.1158945e-001  1.5757512e-005  1.1158945e-001  4.9364761e-001  2.0533103e-001  4.9364761e-001  4.9987370e-001 
 5.8807087e+000  1.5686335e-002  1.0995294e-001  1.4195211e-005  1.0995294e-001  4.7603744e-001  2.1217082e-001  4.7603744e-001  4.8208228e-001 
 6.3169422e+000  1.5686335e-002  1.0840794e-001  1.2594817e-005  1.0840794e-001  4.5770910e-001  2.1912573e-001  4.5770910e-001  4.6358526e-001 
 6.7837143e+000  1.5686335e-002  1.0693856e-001  1.1330000e-005  1.0693856e-001  4.3861043e-001  2.2625673e-001  4.3861043e-001  4.4432837e-001 
 7.2831593e+000  1.5686335e-002  1.0555454e-001  1.0011670e-005  1.0555454e-001  4.1871339e-001  2.3349848e-001  4.1871339e-001  4.2428428e-001 
 7.8175659e+000  1.5686335e-002  1.0424171e-001  8.9245286e-006  1.0424171e-001  3.9795962e-001  2.4093327e-001  3.9795962e-001  4.0339279e-001 
 8.3893795e+000  1.5686335e-002  1.0301050e-001  7.8958828e-006  1.0301050e-001  3.7631181e-001  2.4847110e-001  3.7631181e-001  3.8161740e-001 
 9.0012217e+000  1.5686335e-002  1.0184690e-001  6.9944422e-006  1.0184690e-001  3.5370654e-001  2.5622559e-001  3.5370654e-001  3.5889295e-001 
 9.6558924e+000  1.5686335e-002  1.0076333e-001  6.1043238e-006  1.0076333e-001  3.3009386e-001  2.6407099e-001  3.3009386e-001  3.3517048e-001 
 1.0356388e+001  1.5686335e-002  9.9745624e-002  5.3884046e-006  9.9745624e-002  3.0540183e-001  2.7216744e-001  3.0540183e-001  3.1037644e-001 
 1.1105920e+001  1.5686335e-002  9.8806515e-002  4.6818468e-006  9.8806515e-002  2.7956498e-001  2.8033900e-001  2.7956498e-001  2.8444633e-001 
 1.1907920e+001  1.5686335e-002  9.7933985e-002  4.0658283e-006  9.7933985e-002  2.5249916e-001  2.8881279e-001  2.5249916e-001  2.5729468e-001 
 1.2766060e+001  1.5686335e-002  9.7136706e-002  3.4333889e-006  9.7136706e-002  2.2411798e-001  2.9734322e-001  2.2411798e-001  2.2883575e-001 
 1.3684270e+001  1.5686335e-002  9.6411988e-002  2.9519385e-006  9.6411988e-002  1.9432248e-001  3.0625132e-001  1.9432248e-001  1.9897012e-001 
 1.4666756e+001  1.5686335e-002  9.5749505e-002  2.5200716e-006  9.5749505e-002  1.6299342e-001  3.1519708e-001  1.6299342e-001  1.6757740e-001 
 1.5718015e+001  1.5686335e-002  9.5177032e-002  2.0722541e-006  9.5177032e-002  1.3003008e-001  3.2462990e-001  1.3003008e-001  1.3455941e-001 
 1.6842865e+001  1.5686335e-002  9.4626375e-002  1.7467298e-006  9.4626375e-002  9.5249183e-002  3.3408538e-001  9.5249183e-002  9.9726260e-002 
 1.8046452e+001  1.5686335e-002  9.4244696e-002  1.3255201e-006  9.4244696e-002  5.8587305e-002  3.4416464e-001  5.8587305e-002  6.3028336e-002 
 1.9334295e+001  1.5686335e-002  9.3672745e-002  7.7493576e-007  9.3672745e-002  1.9618714e-002  3.5430291e-001  1.9618714e-002  2.4006005e-002 
 2.0000000e+001  1.5686335e-002  9.3672745e-002  7.7560634e-007  9.3672745e-002  0.0000000e+000  3.5954353e-001  0.0000000e+000  4.3872916e-003 
 0.0000000e+000  4.8627645e-002  1.0000000e+000  0.0000000e+000  1.0000000e+000  1.0858148e+000  0.0000000e+000  1.0858148e+000  1.5858148e+000 
 1.2291715e-002  4.8627645e-002  1.0164784e+000  4.3956999e-002  1.0174284e+000  1.0667318e+000  4.1846153e-005  1.0667318e+000  1.5843121e+000 
 3.7736509e-002  4.8627645e-002  1.0441943e+000  9.1491319e-002  1.0481949e+000  1.0272285e+000  3.5633903e-004  1.0272285e+000  1.5765847e+000 
 6.4963534e-002  4.8627645e-002  1.0607833e+000  1.1600691e-001  1.0671077e+000  9.8828602e-001  9.8314753e-004  9.8828602e-001  1.5576454e+000 
 9.4095588e-002  4.8627645e-002  1.0627313e+000  1.2565960e-001  1.0701346e+000  9.4990313e-001  1.9652040e-003  9.4990313e-001  1.5224972e+000 
 1.2526625e-001  4.8627645e-002  1.0527121e+000  1.2394844e-001  1.0599840e+000  9.1345191e-001  3.3408145e-003  9.1345191e-001  1.4752349e+000 
 1.5861896e-001  4.8627645e-002  1.0295190e+000  1.1375394e-001  1.0357844e+000  8.8247639e-001  5.1292740e-003  8.8247639e-001  1.4189010e+000 
 1.9430619e-001  4.8627645e-002  9.9535376e-001  9.7465128e-002  1.0001143e+000  8.5732359e-001  7.3328326e-003  8.5732359e-001  1.3574378e+000 
 2.3249130e-001  4.8627645e-002  9.5312780e-001  7.7853493e-002  9.5630211e-001  8.3852792e-001  9.9185416e-003  8.3852792e-001  1.2957848e+000 
 2.7334976e-001  4.8627645e-002  9.0597767e-001  5.8659829e-002  9.0787470e-001  8.2568085e-001  1.2819707e-002  8.2568085e-001  1.2377990e+000 
 3.1706923e-001  4.8627645e-002  8.5712171e-001  4.2371850e-002  8.5816842e-001  8.1729257e-001  1.5965922e-002  8.1729257e-001  1.1855191e+000 
 3.6384889e-001  4.8627645e-002  8.0977142e-001  3.0134115e-002  8.1033194e-001  8.1133538e-001  1.9296987e-002  8.1133538e-001  1.1396543e+000 
 4.1390228e-001  4.8627645e-002  7.6565814e-001  2.1914873e-002  7.6597172e-001  8.0622154e-001  2.2775151e-002  8.0622154e-001  1.0995779e+000 
 4.6745992e-001  4.8627645e-002  7.2555476e-001  1.6712444e-002  7.2574723e-001  8.0095476e-001  2.6389480e-002  8.0095476e-001  1.0643092e+000 
 5.2476656e-001  4.8627645e-002  6.8953979e-001  1.3348187e-002  6.8966895e-001  7.9516929e-001  3.0130237e-002  7.9516929e-001  1.0329909e+000 
 5.8608472e-001  4.8627645e-002  6.5732658e-001  1.1006906e-002  6.5741873e-001  7.8884000e-001  3.3985652e-002  7.8884000e-001  1.0049397e+000 
 6.5169525e-001  4.8627645e-002  6.2848675e-001  9.1848159e-003  6.2855387e-001  7.8211331e-001  3.7940186e-002  7.8211331e-001  9.7965330e-001 
 7.2189790e-001  4.8627645e-002  6.0260832e-001  7.6772794e-003  6.0265720e-001  7.7511173e-001  4.1978668e-002  7.7511173e-001  9.5670962e-001 
 7.9701531e-001  4.8627645e-002  5.7931036e-001  6.4120227e-003  5.7934582e-001  7.6790017e-001  4.6092566e-002  7.6790017e-001  9.3572098e-001 
 8.7739104e-001  4.8627645e-002  5.5828458e-001  5.3642974e-003  5.5831033e-001  7.6048845e-001  5.0275713e-002  7.6048845e-001  9.1634369e-001 
 9.6339333e-001  4.8627645e-002  5.3921527e-001  4.5236708e-003  5.3923422e-001  7.5284785e-001  5.4529428e-002  7.5284785e-001  8.9823461e-001 
 1.0554160e+000  4.8627645e-002  5.2181840e-001  3.8460910e-003  5.2183259e-001  7.4495506e-001  5.8856368e-002  7.4495506e-001  8.8110965e-001 
 1.1538795e+000  4.8627645e-002  5.0586140e-001  3.3002566e-003  5.0587219e-001  7.3678201e-001  6.3260026e-002  7.3678201e-001  8.6473536e-001 
 1.2592361e+000  4.8627645e-002  4.9113098e-001  2.8576187e-003  4.9113929e-001  7.2830880e-001  6.7745745e-002  7.2830880e-001  8.4891772e-001 
 1.3719671e+000  4.8627645e-002  4.7745717e-001  2.4877784e-003  4.7746363e-001  7.1952754e-001  7.2317541e-002  7.1952754e-001  8.3351332e-001 
 1.4925885e+000  4.8627645e-002  4.6472022e-001  2.1755316e-003  4.6472532e-001  7.1042877e-001  7.6977976e-002  7.1042877e-001  8.1841356e-001 
 1.6216545e+000  4.8627645e-002  4.5279968e-001  1.9081456e-003  4.5280370e-001  7.0100319e-001  8.1732459e-002  7.0100319e-001  8.0351877e-001 
 1.7597550e+000  4.8627645e-002  4.4163767e-001  1.6754589e-003  4.4164085e-001  6.9124418e-001  8.6581394e-002  6.9124418e-001  7.8876752e-001 
 1.9075224e+000  4.8627645e-002  4.3114114e-001  1.4793911e-003  4.3114367e-001  6.8113309e-001  9.1530204e-002  6.8113309e-001  7.7407551e-001 
 2.0656340e+000  4.8627645e-002  4.2124081e-001  1.3060060e-003  4.2124283e-001  6.7066807e-001  9.6582919e-002  6.7066807e-001  7.5939083e-001 
 2.2348135e+000  4.8627645e-002  4.1190031e-001  1.1539124e-003  4.1190192e-001  6.5983200e-001  1.0173993e-001  6.5983200e-001  7.4466360e-001 
 2.4158354e+000  4.8627645e-002  4.0307134e-001  1.0211276e-003  4.0307263e-001  6.4860731e-001  1.0700778e-001  6.4860731e-001  7.2984111e-001 
 2.6095285e+000  4.8627645e-002  3.9472088e-001  9.0424012e-004  3.9472193e-001  6.3697833e-001  1.1238496e-001  6.3697833e-001  7.1488100e-001 
 2.8167806e+000  4.8627645e-002  3.8680896e-001  8.0164458e-004  3.8680980e-001  6.2492526e-001  1.1788044e-001  6.2492526e-001  6.9973618e-001 
 3.0385399e+000  4.8627645e-002  3.7931579e-001  7.1077317e-004  3.7931645e-001  6.1243016e-001  1.2348955e-001  6.1243016e-001  6.8437064e-001 
 3.2758224e+000  4.8627645e-002  3.7220311e-001  6.3066365e-004  3.7220365e-001  5.9946984e-001  1.2922493e-001  5.9946984e-001  6.6873759e-001 
 3.5297146e+000  4.8627645e-002  3.6546710e-001  5.5940112e-004  3.6546752e-001  5.8602440e-001  1.3507654e-001  5.8602440e-001  6.5280765e-001 
 3.8013785e+000  4.8627645e-002  3.5906243e-001  4.9664330e-004  3.5906279e-001  5.7206577e-001  1.4106321e-001  5.7206577e-001  6.3652879e-001 
 4.0920601e+000  4.8627645e-002  3.5300431e-001  4.4020524e-004  3.5300457e-001  5.5757362e-001  1.4716737e-001  5.5757362e-001  6.1987972e-001 
 4.4030900e+000  4.8627645e-002  3.4723777e-001  3.9202487e-004  3.4723797e-001  5.4251081e-001  1.5341562e-001  5.4251081e-001  6.0279793e-001 
 4.7358913e+000  4.8627645e-002  3.4176889e-001  3.4778952e-004  3.4176907e-001  5.2686441e-001  1.5978481e-001  5.2686441e-001  5.8526748e-001 
 5.0919890e+000  4.8627645e-002  3.3656585e-001  3.0889254e-004  3.3656600e-001  5.1059294e-001  1.6630723e-001  5.1059294e-001  5.6723130e-001 
 5.4730139e+000  4.8627645e-002  3.3164594e-001  2.7370377e-004  3.3164605e-001  4.9367237e-001  1.7294952e-001  4.9367237e-001  5.4866689e-001 
 5.8807087e+000  4.8627645e-002  3.2696280e-001  2.4303145e-004  3.2696289e-001  4.7605935e-001  1.7975691e-001  4.7605935e-001  5.2951169e-001 
 6.3169422e+000  4.8627645e-002  3.2254559e-001  2.1490834e-004  3.2254565e-001  4.5772845e-001  1.8668114e-001  4.5772845e-001  5.0974631e-001 
 6.7837143e+000  4.8627645e-002  3.1834626e-001  1.9043541e-004  3.1834632e-001  4.3862754e-001  1.9378383e-001  4.3862754e-001  4.8929974e-001 
 7.2831593e+000  4.8627645e-002  3.1439579e-001  1.6796518e-004  3.1439584e-001  4.1872844e-001  2.0099872e-001  4.1872844e-001  4.6815082e-001 
 7.8175659e+000  4.8627645e-002  3.1064951e-001  1.4834710e-004  3.1064954e-001  3.9797285e-001  2.0840877e-001  3.9797285e-001  4.4622442e-001 
 8.3893795e+000  4.8627645e-002  3.0714118e-001  1.3040665e-004  3.0714121e-001  3.7632340e-001  2.1592310e-001  3.7632340e-001  4.2349127e-001 
 9.0012217e+000  4.8627645e-002  3.0382633e-001  1.1446539e-004  3.0382636e-001  3.5371670e-001  2.2365604e-001  3.5371670e-001  3.9987192e-001 
 9.6558924e+000  4.8627645e-002  3.0074418e-001  9.9956298e-005  3.0074421e-001  3.3010274e-001  2.3148100e-001  3.3010274e-001  3.7532628e-001 
 1.0356388e+001  4.8627645e-002  2.9785001e-001  8.7112792e-005  2.9785001e-001  3.0540955e-001  2.3955882e-001  3.0540955e-001  3.4976688e-001 
 1.1105920e+001  4.8627645e-002  2.9518384e-001  7.5313226e-005  2.9518384e-001  2.7957162e-001  2.4771273e-001  2.7957162e-001  3.2313839e-001 
 1.1907920e+001  4.8627645e-002  2.9270703e-001  6.4934829e-005  2.9270703e-001  2.5250486e-001  2.5617057e-001  2.5250486e-001  2.9534355e-001 
 1.2766060e+001  4.8627645e-002  2.9044732e-001  5.5312899e-005  2.9044732e-001  2.2412285e-001  2.6468602e-001  2.2412285e-001  2.6630268e-001 
 1.3684270e+001  4.8627645e-002  2.8839403e-001  4.7038953e-005  2.8839403e-001  1.9432662e-001  2.7358082e-001  1.9432662e-001  2.3591219e-001 
 1.4666756e+001  4.8627645e-002  2.8651878e-001  3.9297247e-005  2.8651878e-001  1.6299686e-001  2.8251418e-001  1.6299686e-001  2.0404336e-001 
 1.5718015e+001  4.8627645e-002  2.8490180e-001  3.3137738e-005  2.8490180e-001  1.3003299e-001  2.9193625e-001  1.3003299e-001  1.7061751e-001 
 1.6842865e+001  4.8627645e-002  2.8334093e-001  2.6289559e-005  2.8334093e-001  9.5251471e-002  3.0138177e-001  9.5251471e-002  1.3539252e-001 
 1.8046452e+001  4.8627645e-002  2.8226578e-001  2.3633029e-005  2.8226578e-001  5.8589414e-002  3.1145290e-001  5.8589414e-002  9.8426402e-002 
 1.9334295e+001  4.8627645e-002  2.8065327e-001  1.4927209e-005  2.8065327e-001  1.9619867e-002  3.2158330e-001  1.9619867e-002  5.9002995e-002 
 2.0000000e+001  4.8627645e-002  2.8065327e-001  1.4925065e-005  2.8065327e-001  0.0000000e+000  3.2681984e-001  0.0000000e+000  3.9383128e-002 
 0.0000000e+000  8.4863111e-002  1.0000000e+000  0.0000000e+000  1.0000000e+000  1.0038097e+000  0.0000000e+000  1.0038097e+000  1.5038097e+000 
 1.2291715e-002  8.4863111e-002  1.0044053e+000  2.0317484e-002  1.0046108e+000  9.9867123e-001 -2.6880345e-008  9.9867123e-001  1.5032926e+000 
 3.7736509e-002  8.4863111e-002  1.0188695e+000  5.1549062e-002  1.0201727e+000  9.8803413e-001  1.6220501e-005  9.8803413e-001  1.5084103e+000 
 6.4963534e-002  8.4863111e-002  1.0414789e+000  7.5628951e-002  1.0442213e+000  9.6685374e-001  7.8966536e-005  9.6685374e-001  1.5120528e+000 
 9.4095588e-002  8.4863111e-002  1.0657781e+000  9.2294715e-002  1.0697670e+000  9.4099444e-001  2.2427257e-004  9.4099444e-001  1.5131952e+000 
 1.2526625e-001  8.4863111e-002  1.0872023e+000  1.0201827e-001  1.0919783e+000  9.1511029e-001  4.9095968e-004  9.1511029e-001  1.5113186e+000 
 1.5861896e-001  8.4863111e-002  1.1025593e+000  1.0304675e-001  1.1073643e+000  8.9019090e-001  9.1351365e-004  8.9019090e-001  1.5033188e+000 
 1.9430619e-001  8.4863111e-002  1.1121774e+000  9.8868147e-002  1.1165632e+000  8.6764187e-001  1.5203261e-003  8.6764187e-001  1.4909986e+000 
 2.3249130e-001  8.4863111e-002  1.1133119e+000  9.0671584e-002  1.1169981e+000  8.4820467e-001  2.3290745e-003  8.4820467e-001  1.4720470e+000 
 2.7334976e-001  8.4863111e-002  1.1077566e+000  8.0465958e-002  1.1106752e+000  8.3287740e-001  3.3479887e-003  8.3287740e-001  1.4496771e+000 
 3.1706923e-001  8.4863111e-002  1.0951146e+000  6.9875345e-002  1.0973415e+000  8.2214850e-001  4.5794887e-003  8.2214850e-001  1.4242277e+000 
 3.6384889e-001  8.4863111e-002  1.0771360e+000  5.9937950e-002  1.0788023e+000  8.1432784e-001  6.0256002e-003  8.1432784e-001  1.3962351e+000 
 4.1390228e-001  8.4863111e-002  1.0555062e+000  5.1270902e-002  1.0567508e+000  8.0799788e-001  7.6920544e-003  8.0799788e-001  1.3663589e+000 
 4.6745992e-001  8.4863111e-002  1.0315557e+000  4.3936428e-002  1.0324908e+000  8.0218494e-001  9.5874639e-003  8.0218494e-001  1.3352036e+000 
 5.2476656e-001  8.4863111e-002  1.0062431e+000  3.7646547e-002  1.0069470e+000  7.9622269e-001  1.1717297e-002  7.9622269e-001  1.3031939e+000 
 5.8608472e-001  8.4863111e-002  9.8035741e-001  3.2225378e-002  9.8088694e-001  7.8984094e-001  1.4081821e-002  7.8984094e-001  1.2709105e+000 
 6.5169525e-001  8.4863111e-002  9.5428544e-001  2.7529586e-002  9.5468247e-001  7.8308213e-001  1.6674673e-002  7.8308213e-001  1.2387915e+000 
 7.2189790e-001  8.4863111e-002  9.2835915e-001  2.3474276e-002  9.2865586e-001  7.7601886e-001  1.9483104e-002  7.7601886e-001  1.2072197e+000 