Variables = "x","y", "Velocity_x", "Velocity_y", "Velocity_whole value", "Pressure", "Absolute pressure", "Total pressure"
Zone i=42, j=42
 0.0000000e+000  0.0000000e+000  0.0000000e+000  0.0000000e+000  0.0000000e+000  6.2767835e-003  6.2767835e-003  6.2767835e-003 
 1.2196480e-002  0.0000000e+000  0.0000000e+000  0.0000000e+000  0.0000000e+000  6.2796907e-003  6.2796907e-003  6.2796907e-003 
 3.7443161e-002  0.0000000e+000  0.0000000e+000  0.0000000e+000  0.0000000e+000  6.2857079e-003  6.2857079e-003  6.2857079e-003 
 6.4457059e-002  0.0000000e+000  0.0000000e+000  0.0000000e+000  0.0000000e+000  6.3054995e-003  6.3054995e-003  6.3054995e-003 
 9.3361929e-002  0.0000000e+000  0.0000000e+000  0.0000000e+000  0.0000000e+000  6.3348152e-003  6.3348152e-003  6.3348152e-003 
 1.2429020e-001  0.0000000e+000  0.0000000e+000  0.0000000e+000  0.0000000e+000  6.3653686e-003  6.3653686e-003  6.3653686e-003 
 1.5738344e-001  0.0000000e+000  0.0000000e+000  0.0000000e+000  0.0000000e+000  6.3889315e-003  6.3889315e-003  6.3889315e-003 
 1.9279319e-001  0.0000000e+000  0.0000000e+000  0.0000000e+000  0.0000000e+000  6.3944035e-003  6.3944035e-003  6.3944035e-003 
 2.3068160e-001  0.0000000e+000  0.0000000e+000  0.0000000e+000  0.0000000e+000  6.3705896e-003  6.3705896e-003  6.3705896e-003 
 2.7122220e-001  0.0000000e+000  0.0000000e+000  0.0000000e+000  0.0000000e+000  6.3115833e-003  6.3115833e-003  6.3115833e-003 
 3.1460077e-001  0.0000000e+000  0.0000000e+000  0.0000000e+000  0.0000000e+000  6.2140413e-003  6.2140413e-003  6.2140413e-003 
 3.6101580e-001  0.0000000e+000  0.0000000e+000  0.0000000e+000  0.0000000e+000  6.0843690e-003  6.0843690e-003  6.0843690e-003 
 4.1067982e-001  0.0000000e+000  0.0000000e+000  0.0000000e+000  0.0000000e+000  5.9363889e-003  5.9363889e-003  5.9363889e-003 
 4.6382031e-001  0.0000000e+000  0.0000000e+000  0.0000000e+000  0.0000000e+000  5.7875356e-003  5.7875356e-003  5.7875356e-003 
 5.2068073e-001  0.0000000e+000  0.0000000e+000  0.0000000e+000  0.0000000e+000  5.6573460e-003  5.6573460e-003  5.6573460e-003 
 5.8152139e-001  0.0000000e+000  0.0000000e+000  0.0000000e+000  0.0000000e+000  5.5588200e-003  5.5588200e-003  5.5588200e-003 
 6.4662075e-001  0.0000000e+000  0.0000000e+000  0.0000000e+000  0.0000000e+000  5.4716840e-003  5.4716840e-003  5.4716840e-003 
 7.1627712e-001  0.0000000e+000  0.0000000e+000  0.0000000e+000  0.0000000e+000  5.3804046e-003  5.3804046e-003  5.3804046e-003 
 7.9080951e-001  0.0000000e+000  0.0000000e+000  0.0000000e+000  0.0000000e+000  5.1241508e-003  5.1241508e-003  5.1241508e-003 
 8.7055916e-001  0.0000000e+000  0.0000000e+000  0.0000000e+000  0.0000000e+000  4.4888272e-003  4.4888272e-003  4.4888272e-003 
 9.5589119e-001  0.0000000e+000  0.0000000e+000  0.0000000e+000  0.0000000e+000  3.2198573e-003  3.2198573e-003  3.2198573e-003 
 1.0441090e+000  0.0000000e+000  0.0000000e+000  0.0000000e+000  0.0000000e+000  7.1072043e-004  7.1072043e-004  7.1072043e-004 
 1.1294410e+000  0.0000000e+000  0.0000000e+000  0.0000000e+000  0.0000000e+000 -3.5906557e-003 -3.5906557e-003 -3.5906557e-003 
 1.2091905e+000  0.0000000e+000  0.0000000e+000  0.0000000e+000  0.0000000e+000 -9.4025480e-003 -9.4025480e-003 -9.4025480e-003 
 1.2837230e+000  0.0000000e+000  0.0000000e+000  0.0000000e+000  0.0000000e+000 -1.5128084e-002 -1.5128084e-002 -1.5128084e-002 
 1.3533795e+000  0.0000000e+000  0.0000000e+000  0.0000000e+000  0.0000000e+000 -1.7862653e-002 -1.7862653e-002 -1.7862653e-002 
 1.4184790e+000  0.0000000e+000  0.0000000e+000  0.0000000e+000  0.0000000e+000 -1.5023433e-002 -1.5023433e-002 -1.5023433e-002 
 1.4793196e+000  0.0000000e+000  0.0000000e+000  0.0000000e+000  0.0000000e+000 -6.0966308e-003 -6.0966308e-003 -6.0966308e-003 
 1.5361795e+000  0.0000000e+000  0.0000000e+000  0.0000000e+000  0.0000000e+000  7.1950010e-003  7.1950010e-003  7.1950010e-003 
 1.5893199e+000  0.0000000e+000  0.0000000e+000  0.0000000e+000  0.0000000e+000  2.1712171e-002  2.1712171e-002  2.1712171e-002 
 1.6389844e+000  0.0000000e+000  0.0000000e+000  0.0000000e+000  0.0000000e+000  3.3962362e-002  3.3962362e-002  3.3962362e-002 
 1.6853995e+000  0.0000000e+000  0.0000000e+000  0.0000000e+000  0.0000000e+000  4.1011177e-002  4.1011177e-002  4.1011177e-002 
 1.7287780e+000  0.0000000e+000  0.0000000e+000  0.0000000e+000  0.0000000e+000  4.2323429e-002  4.2323429e-002  4.2323429e-002 
 1.7693186e+000  0.0000000e+000  0.0000000e+000  0.0000000e+000  0.0000000e+000  3.8927831e-002  3.8927831e-002  3.8927831e-002 
 1.8072065e+000  0.0000000e+000  0.0000000e+000  0.0000000e+000  0.0000000e+000  3.4277003e-002  3.4277003e-002  3.4277003e-002 
 1.8426166e+000  0.0000000e+000  0.0000000e+000  0.0000000e+000  0.0000000e+000  3.0874869e-002  3.0874869e-002  3.0874869e-002 
 1.8757100e+000  0.0000000e+000  0.0000000e+000  0.0000000e+000  0.0000000e+000  2.9009433e-002  2.9009433e-002  2.9009433e-002 
 1.9066380e+000  0.0000000e+000  0.0000000e+000  0.0000000e+000  0.0000000e+000  2.8164282e-002  2.8164282e-002  2.8164282e-002 
 1.9355431e+000  0.0000000e+000  0.0000000e+000  0.0000000e+000  0.0000000e+000  2.7868019e-002  2.7868019e-002  2.7868019e-002 
 1.9625571e+000  0.0000000e+000  0.0000000e+000  0.0000000e+000  0.0000000e+000  2.7880982e-002  2.7880982e-002  2.7880982e-002 
 1.9878035e+000  0.0000000e+000  0.0000000e+000  0.0000000e+000  0.0000000e+000  2.8149316e-002  2.8149316e-002  2.8149316e-002 
 2.0000000e+000  0.0000000e+000  0.0000000e+000  0.0000000e+000  0.0000000e+000  2.8278947e-002  2.8278947e-002  2.8278947e-002 
 0.0000000e+000  6.0982401e-003  0.0000000e+000  0.0000000e+000  0.0000000e+000  6.2771444e-003  6.2771444e-003  6.2771444e-003 
 1.2196480e-002  6.0982401e-003 -1.4051512e-005  4.0025629e-006  1.4610458e-005  6.2798201e-003  6.2798201e-003  6.2798201e-003 
 3.7443161e-002  6.0982401e-003 -3.5414512e-005  4.7103904e-006  3.5726396e-005  6.2853587e-003  6.2853587e-003  6.2853592e-003 
 6.4457059e-002  6.0982401e-003 -3.3576296e-005  6.0822418e-007  3.3581804e-005  6.3036596e-003  6.3036596e-003  6.3036601e-003 
 9.3361929e-002  6.0982401e-003  2.8657278e-005 -3.2647156e-006  2.8842640e-005  6.3306070e-003  6.3306070e-003  6.3306075e-003 
 1.2429020e-001  6.0982401e-003  1.7060856e-004 -8.0498867e-006  1.7079836e-004  6.3587208e-003  6.3587208e-003  6.3587353e-003 
 1.5738344e-001  6.0982401e-003  4.0040570e-004 -1.2093095e-005  4.0058827e-004  6.3800546e-003  6.3800546e-003  6.3801347e-003 
 1.9279319e-001  6.0982401e-003  7.1303756e-004 -1.4801874e-005  7.1319117e-004  6.3840114e-003  6.3840114e-003  6.3842656e-003 
 2.3068160e-001  6.0982401e-003  1.0828641e-003 -1.5202239e-005  1.0829709e-003  6.3597532e-003  6.3597532e-003  6.3603395e-003 
 2.7122220e-001  6.0982401e-003  1.4704657e-003 -1.3854377e-005  1.4705310e-003  6.3015474e-003  6.3015474e-003  6.3026287e-003 
 3.1460077e-001  6.0982401e-003  1.8251473e-003 -1.0258324e-005  1.8251762e-003  6.2060165e-003  6.2060165e-003  6.2076822e-003 
 3.6101580e-001  6.0982401e-003  2.0912928e-003 -5.4361362e-006  2.0912997e-003  6.0792482e-003  6.0792482e-003  6.0814349e-003 
 4.1067982e-001  6.0982401e-003  2.2291220e-003 -5.7780562e-007  2.2291220e-003  5.9344745e-003  5.9344745e-003  5.9369588e-003 
 4.6382031e-001  6.0982401e-003  2.2240400e-003  3.3699400e-006  2.2240425e-003  5.7883281e-003  5.7883281e-003  5.7908013e-003 
 5.2068073e-001  6.0982401e-003  2.1072042e-003  4.9709715e-006  2.1072100e-003  5.6594494e-003  5.6594494e-003  5.6616697e-003 
 5.8152139e-001  6.0982401e-003  1.9719501e-003  2.4522249e-006  1.9719517e-003  5.5601685e-003  5.5601685e-003  5.5621127e-003 
 6.4662075e-001  6.0982401e-003  1.9431998e-003 -2.3202392e-006  1.9432012e-003  5.4696668e-003  5.4696668e-003  5.4715546e-003 
 7.1627712e-001  6.0982401e-003  2.2460148e-003 -1.5390448e-005  2.2460674e-003  5.3727622e-003  5.3727622e-003  5.3752847e-003 
 7.9080951e-001  6.0982401e-003  3.0542340e-003 -2.7205579e-005  3.0543550e-003  5.1123868e-003  5.1123868e-003  5.1170513e-003 
 8.7055916e-001  6.0982401e-003  4.1256812e-003 -3.2416734e-005  4.1258084e-003  4.4798930e-003  4.4798930e-003  4.4884044e-003 
 9.5589119e-001  6.0982401e-003  4.9234955e-003 -2.3150318e-005  4.9235499e-003  3.2252108e-003  3.2252108e-003  3.2373315e-003 
 1.0441090e+000  6.0982401e-003  4.1603069e-003 -2.6901620e-005  4.1603940e-003  7.6326245e-004  7.6326245e-004  7.7191688e-004 
 1.1294410e+000  6.0982401e-003 -3.7755579e-004  3.4069937e-005  3.7908988e-004 -3.4664576e-003 -3.4664576e-003 -3.4663856e-003 
 1.2091905e+000  6.0982401e-003 -1.0274814e-002  1.7280526e-004  1.0276266e-002 -9.1975322e-003 -9.1975322e-003 -9.1447318e-003 
 1.2837230e+000  6.0982401e-003 -2.5297593e-002  3.9003763e-004  2.5300600e-002 -1.4874023e-002 -1.4874023e-002 -1.4553963e-002 
 1.3533795e+000  6.0982401e-003 -4.2523418e-002  6.0357072e-004  4.2527702e-002 -1.7633451e-002 -1.7633451e-002 -1.6729148e-002 
 1.4184790e+000  6.0982401e-003 -5.7632986e-002  6.7119265e-004  5.7636894e-002 -1.4885066e-002 -1.4885066e-002 -1.3224061e-002 
 1.4793196e+000  6.0982401e-003 -6.6864870e-002  5.5268017e-004  6.6867158e-002 -6.0840831e-003 -6.0840831e-003 -3.8484749e-003 
 1.5361795e+000  6.0982401e-003 -6.8773240e-002  1.8134457e-004  6.8773478e-002  7.0683709e-003  7.0683709e-003  9.4332667e-003 
 1.5893199e+000  6.0982401e-003 -6.1246470e-002 -1.8169626e-004  6.1246738e-002  2.1416169e-002  2.1416169e-002  2.3291750e-002 
 1.6389844e+000  6.0982401e-003 -4.6195444e-002 -6.7596883e-004  4.6200391e-002  3.3565883e-002  3.3565883e-002  3.4633122e-002 
 1.6853995e+000  6.0982401e-003 -2.6548347e-002 -9.5452875e-004  2.6565501e-002  4.0580172e-002  4.0580172e-002  4.0933035e-002 
 1.7287780e+000  6.0982401e-003 -7.1101766e-003 -8.3989417e-004  7.1596112e-003  4.1920401e-002  4.1920401e-002  4.1946031e-002 
 1.7693186e+000  6.0982401e-003  7.3937057e-003 -5.4104190e-004  7.4134748e-003  3.8667552e-002  3.8667552e-002  3.8695034e-002 
 1.8072065e+000  6.0982401e-003  1.3394617e-002  1.2950748e-004  1.3395243e-002  3.4158699e-002  3.4158699e-002  3.4248415e-002 
 1.8426166e+000  6.0982401e-003  1.2683846e-002  3.4535764e-004  1.2688547e-002  3.0883310e-002  3.0883310e-002  3.0963810e-002 
 1.8757100e+000  6.0982401e-003  9.5008882e-003  3.2941083e-004  9.5065972e-003  2.9085308e-002  2.9085308e-002  2.9130496e-002 
 1.9066380e+000  6.0982401e-003  6.0569993e-003  2.5070031e-004  6.0621854e-003  2.8261909e-002  2.8261909e-002  2.8280284e-002 
 1.9355431e+000  6.0982401e-003  3.1545740e-003  1.8750447e-004  3.1601416e-003  2.7958332e-002  2.7958332e-002  2.7963325e-002 
 1.9625571e+000  6.0982401e-003  9.1207912e-004  1.3796167e-004  9.2245417e-004  2.7944965e-002  2.7944965e-002  2.7945390e-002 
 1.9878035e+000  6.0982401e-003 -1.6067780e-004 -5.0395589e-005  1.6839558e-004  2.8189018e-002  2.8189018e-002  2.8189033e-002 
 2.0000000e+000  6.0982401e-003  0.0000000e+000  0.0000000e+000  0.0000000e+000  2.8306920e-002  2.8306920e-002  2.8306920e-002 
 0.0000000e+000  1.8721581e-002  0.0000000e+000  0.0000000e+000  0.0000000e+000  6.2778918e-003  6.2778918e-003  6.2778918e-003 
 1.2196480e-002  1.8721581e-002 -2.5606323e-005  2.1057378e-005  3.3152632e-005  6.2800883e-003  6.2800883e-003  6.2800888e-003 
 3.7443161e-002  1.8721581e-002 -5.9916500e-005  1.2085278e-005  6.1123159e-005  6.2846355e-003  6.2846355e-003  6.2846374e-003 
 6.4457059e-002  1.8721581e-002 -1.8163868e-005 -2.8882032e-005  3.4118879e-005  6.2998515e-003  6.2998515e-003  6.2998519e-003 
 9.3361929e-002  1.8721581e-002  1.8565684e-004 -8.3028899e-005  2.0337715e-004  6.3218963e-003  6.3218963e-003  6.3219168e-003 
 1.2429020e-001  1.8721581e-002  6.0582714e-004 -1.4213524e-004  6.2227721e-004  6.3449601e-003  6.3449601e-003  6.3451538e-003 
 1.5738344e-001  1.8721581e-002  1.2669292e-003 -1.9447168e-004  1.2817679e-003  6.3616796e-003  6.3616796e-003  6.3625011e-003 
 1.9279319e-001  1.8721581e-002  2.1554956e-003 -2.2962404e-004  2.1676919e-003  6.3625001e-003  6.3625001e-003  6.3648494e-003 
 2.3068160e-001  1.8721581e-002  3.2043960e-003 -2.3824038e-004  3.2132401e-003  6.3373218e-003  6.3373218e-003  6.3424842e-003 
 2.7122220e-001  1.8721581e-002  4.3067387e-003 -2.1934658e-004  4.3123211e-003  6.2807729e-003  6.2807729e-003  6.2900707e-003 
 3.1460077e-001  1.8721581e-002  5.3228987e-003 -1.7194154e-004  5.3256750e-003  6.1894050e-003  6.1894050e-003  6.2035862e-003 
 3.6101580e-001  1.8721581e-002  6.0993861e-003 -1.0515082e-004  6.1002923e-003  6.0686478e-003  6.0686478e-003  6.0872547e-003 
 4.1067982e-001  1.8721581e-002  6.5209270e-003 -3.3275526e-005  6.5210117e-003  5.9305122e-003  5.9305122e-003  5.9517738e-003 
 4.6382031e-001  1.8721581e-002  6.5408009e-003  2.6607173e-005  6.5408549e-003  5.7899691e-003  5.7899691e-003  5.8113607e-003 
 5.2068073e-001  1.8721581e-002  6.2431721e-003  5.3926113e-005  6.2434049e-003  5.6638038e-003  5.6638038e-003  5.6832940e-003 
 5.8152139e-001  1.8721581e-002  5.8757733e-003  3.1955697e-005  5.8758603e-003  5.5629592e-003  5.5629592e-003  5.5802222e-003 
 6.4662075e-001  1.8721581e-002  5.7958988e-003 -4.3903754e-005  5.7960651e-003  5.4654907e-003  5.4654907e-003  5.4822881e-003 
 7.1627712e-001  1.8721581e-002  6.6000544e-003 -1.8654403e-004  6.6026901e-003  5.3569418e-003  5.3569418e-003  5.3787394e-003 
 7.9080951e-001  1.8721581e-002  8.7088626e-003 -2.9801182e-004  8.7139597e-003  5.0880355e-003  5.0880355e-003  5.1260022e-003 
 8.7055916e-001  1.8721581e-002  1.1354314e-002 -2.6868441e-004  1.1357493e-002  4.4614002e-003  4.4614002e-003  4.5258966e-003 
 9.5589119e-001  1.8721581e-002  1.2661358e-002  2.0355350e-005  1.2661375e-002  3.2362926e-003  3.2362926e-003  3.3164478e-003 
 1.0441090e+000  1.8721581e-002  8.3296131e-003  7.6945173e-004  8.3650770e-003  8.7202422e-004  8.7202422e-004  9.0701145e-004 
 1.1294410e+000  1.8721581e-002 -8.1085218e-003  2.1966931e-003  8.4008090e-003 -3.2093683e-003 -3.2093683e-003 -3.1740814e-003 
 1.2091905e+000  1.8721581e-002 -4.0026594e-002  4.0559480e-003  4.0231567e-002 -8.7731518e-003 -8.7731518e-003 -7.9638623e-003 
 1.2837230e+000  1.8721581e-002 -8.4341519e-002  5.6645703e-003  8.4531531e-002 -1.4348120e-002 -1.4348120e-002 -1.0775330e-002 
 1.3533795e+000  1.8721581e-002 -1.3041905e-001  6.0811248e-003  1.3056074e-001 -1.7159004e-002 -1.7159004e-002 -8.6359503e-003 
 1.4184790e+000  1.8721581e-002 -1.6616689e-001  4.8697395e-003  1.6623823e-001 -1.4598649e-002 -1.4598649e-002 -7.8107469e-004 
 1.4793196e+000  1.8721581e-002 -1.8357672e-001  2.3996562e-003  1.8359239e-001 -6.0581090e-003 -6.0581090e-003  1.0794976e-002 
 1.5361795e+000  1.8721581e-002 -1.8258043e-001 -1.2822499e-003  1.8258493e-001  6.8062483e-003  6.8062483e-003  2.3474876e-002 
 1.5893199e+000  1.8721581e-002 -1.5865821e-001 -5.3005493e-003  1.5874672e-001  2.0803444e-002  2.0803444e-002  3.3403706e-002 
 1.6389844e+000  1.8721581e-002 -1.1932804e-001 -8.7789530e-003  1.1965054e-001  3.2745175e-002  3.2745175e-002  3.9903302e-002 
 1.6853995e+000  1.8721581e-002 -7.1182966e-002 -1.0479995e-002  7.1950294e-002  3.9687991e-002  3.9687991e-002  4.2276412e-002 
 1.7287780e+000  1.8721581e-002 -2.4453798e-002 -9.6433368e-003  2.6286541e-002  4.1086134e-002  4.1086134e-002  4.1431624e-002 
 1.7693186e+000  1.8721581e-002  1.1753276e-002 -6.3664285e-003  1.3366784e-002  3.8128775e-002  3.8128775e-002  3.8218111e-002 
 1.8072065e+000  1.8721581e-002  2.9444471e-002 -1.4844482e-003  2.9481867e-002  3.3913814e-002  3.3913814e-002  3.4348402e-002 
 1.8426166e+000  1.8721581e-002  3.0620744e-002  1.4645308e-003  3.0655747e-002  3.0900786e-002  3.0900786e-002  3.1370673e-002 
 1.8757100e+000  1.8721581e-002  2.4467342e-002  2.5191035e-003  2.4596680e-002  2.9242368e-002  2.9242368e-002  2.9544868e-002 
 1.9066380e+000  1.8721581e-002  1.6372265e-002  2.5724059e-003  1.6573122e-002  2.8463995e-002  2.8463995e-002  2.8601330e-002 
 1.9355431e+000  1.8721581e-002  8.9870552e-003  2.2209333e-003  9.2574134e-003  2.8145278e-002  2.8145278e-002  2.8188128e-002 
 1.9625571e+000  1.8721581e-002  3.1589132e-003  1.6024470e-003  3.5421136e-003  2.8077412e-002  2.8077412e-002  2.8083686e-002 
 1.9878035e+000  1.8721581e-002  1.2843174e-004  3.8382743e-004  4.0474461e-004  2.8271204e-002  2.8271204e-002  2.8271286e-002 
 2.0000000e+000  1.8721581e-002  0.0000000e+000  0.0000000e+000  0.0000000e+000  2.8364824e-002  2.8364824e-002  2.8364824e-002 
 0.0000000e+000  3.2228529e-002  0.0000000e+000  0.0000000e+000  0.0000000e+000  6.2750927e-003  6.2750927e-003  6.2750927e-003 
 1.2196480e-002  3.2228529e-002 -2.5660256e-005  4.2264426e-005  4.9444217e-005  6.2773027e-003  6.2773027e-003  6.2773041e-003 
 3.7443161e-002  3.2228529e-002 -4.0215557e-005  4.4052986e-006  4.0456121e-005  6.2818774e-003  6.2818774e-003  6.2818783e-003 
 6.4457059e-002  3.2228529e-002  7.8077559e-005 -1.1291902e-004  1.3728369e-004  6.2953108e-003  6.2953108e-003  6.2953201e-003 
 9.3361929e-002  3.2228529e-002  4.4593212e-004 -2.7157270e-004  5.2211800e-004  6.3144746e-003  6.3144746e-003  6.3146111e-003 
 1.2429020e-001  3.2228529e-002  1.1453398e-003 -4.4287197e-004  1.2279816e-003  6.3343048e-003  6.3343048e-003  6.3350587e-003 
 1.5738344e-001  3.2228529e-002  2.2147873e-003 -5.9546070e-004  2.2934377e-003  6.3480157e-003  6.3480157e-003  6.3506458e-003 
 1.9279319e-001  3.2228529e-002  3.6337550e-003 -6.9820491e-004  3.7002251e-003  6.3466993e-003  6.3466993e-003  6.3535450e-003 
 2.3068160e-001  3.2228529e-002  5.3021824e-003 -7.2490808e-004  5.3515071e-003  6.3207494e-003  6.3207494e-003  6.3350685e-003 
 2.7122220e-001  3.2228529e-002  7.0580347e-003 -6.6942995e-004  7.0897103e-003  6.2651583e-003  6.2651583e-003  6.2902905e-003 
 3.1460077e-001  3.2228529e-002  8.6868843e-003 -5.3033541e-004  8.7030577e-003  6.1764685e-003  6.1764685e-003  6.2143402e-003 
 3.6101580e-001  3.2228529e-002  9.9517917e-003 -3.3226504e-004  9.9573368e-003  6.0597933e-003  6.0597933e-003  6.1093676e-003 
 4.1067982e-001  3.2228529e-002  1.0667433e-002 -1.1610031e-004  1.0668064e-002  5.9264028e-003  5.9264028e-003  5.9833066e-003 
 4.6382031e-001  3.2228529e-002  1.0750625e-002  6.5726366e-005  1.0750826e-002  5.7900609e-003  5.7900609e-003  5.8478508e-003 
 5.2068073e-001  3.2228529e-002  1.0326774e-002  1.5218092e-004  1.0327895e-002  5.6662802e-003  5.6662802e-003  5.7196128e-003 
 5.8152139e-001  3.2228529e-002  9.7605716e-003  9.5195624e-005  9.7610354e-003  5.5649327e-003  5.5649327e-003  5.6125717e-003 
 6.4662075e-001  3.2228529e-002  9.6135391e-003 -1.2800096e-004  9.6143913e-003  5.4633240e-003  5.4633240e-003  5.5095423e-003 
 7.1627712e-001  3.2228529e-002  1.0763903e-002 -5.2584370e-004  1.0776740e-002  5.3481935e-003  5.3481935e-003  5.4062624e-003 
 7.9080951e-001  3.2228529e-002  1.3755175e-002 -8.1291416e-004  1.3779175e-002  5.0760135e-003  5.0760135e-003  5.1709465e-003 
 8.7055916e-001  3.2228529e-002  1.7177382e-002 -6.2812673e-004  1.7188864e-002  4.4600251e-003  4.4600251e-003  4.6077538e-003 
 9.5589119e-001  3.2228529e-002  1.7418699e-002  4.5070550e-004  1.7424529e-002  3.2788038e-003  3.2788038e-003  3.4306110e-003 
 1.0441090e+000  3.2228529e-002  6.4586918e-003  3.1626020e-003  7.1914359e-003  1.0015686e-003  1.0015686e-003  1.0274270e-003 
 1.1294410e+000  3.2228529e-002 -2.5954926e-002  7.7825612e-003  2.7096614e-002 -2.9661269e-003 -2.9661269e-003 -2.5990137e-003 
 1.2091905e+000  3.2228529e-002 -8.2569405e-002  1.3131650e-002  8.3607100e-002 -8.4567452e-003 -8.4567452e-003 -4.9616718e-003 
 1.2837230e+000  3.2228529e-002 -1.5364020e-001  1.6721409e-002  1.5454745e-001 -1.4098609e-002 -1.4098609e-002 -2.1561512e-003 
 1.3533795e+000  3.2228529e-002 -2.1896118e-001  1.6231291e-002  2.1956195e-001 -1.7104814e-002 -1.7104814e-002  6.9989124e-003 
 1.4184790e+000  3.2228529e-002 -2.6219672e-001  1.1330640e-002  2.6244143e-001 -1.4780252e-002 -1.4780252e-002  1.9657500e-002 
 1.4793196e+000  3.2228529e-002 -2.7682903e-001  3.8666173e-003  2.7685603e-001 -6.4623915e-003 -6.4623915e-003  3.1862240e-002 
 1.5361795e+000  3.2228529e-002 -2.6717627e-001 -5.9080520e-003  2.6724160e-001  6.1846231e-003  6.1846231e-003  4.1893654e-002 
 1.5893199e+000  3.2228529e-002 -2.2908592e-001 -1.6190965e-002  2.2965737e-001  2.0063303e-002  2.0063303e-002  4.6434555e-002 
 1.6389844e+000  3.2228529e-002 -1.7415634e-001 -2.4249688e-002  1.7583650e-001  3.1995423e-002  3.1995423e-002  4.7454663e-002 
 1.6853995e+000  3.2228529e-002 -1.0982455e-001 -2.8101103e-002  1.1336271e-001  3.9000910e-002  3.9000910e-002  4.5426462e-002 
 1.7287780e+000  3.2228529e-002 -4.7276691e-002 -2.6233342e-002  5.4067306e-002  4.0475287e-002  4.0475287e-002  4.1936923e-002 
 1.7693186e+000  3.2228529e-002  3.5194547e-003 -1.8072354e-002  1.8411858e-002  3.7652340e-002  3.7652340e-002  3.7821837e-002 
 1.8072065e+000  3.2228529e-002  3.2457907e-002 -6.1297799e-003  3.3031650e-002  3.3580028e-002  3.3580028e-002  3.4125574e-002 
 1.8426166e+000  3.2228529e-002  3.8950298e-002  2.2291418e-003  3.9014034e-002  3.0736113e-002  3.0736113e-002  3.1497162e-002 
 1.8757100e+000  3.2228529e-002  3.3547781e-002  5.9598177e-003  3.4073055e-002  2.9215682e-002  2.9215682e-002  2.9796168e-002 
 1.9066380e+000  3.2228529e-002  2.3632146e-002  6.8111788e-003  2.4594115e-002  2.8516464e-002  2.8516464e-002  2.8818900e-002 
 1.9355431e+000  3.2228529e-002  1.3562370e-002  6.1846543e-003  1.4905966e-002  2.8223813e-002  2.8223813e-002  2.8334906e-002 
 1.9625571e+000  3.2228529e-002  5.2123815e-003  4.5750169e-003  6.9353948e-003  2.8140893e-002  2.8140893e-002  2.8164944e-002 
 1.9878035e+000  3.2228529e-002  5.2138203e-004  1.5943680e-003  1.6774531e-003  2.8330922e-002  2.8330922e-002  2.8332328e-002 
 2.0000000e+000  3.2228529e-002  0.0000000e+000  0.0000000e+000  0.0000000e+000  2.8422724e-002  2.8422724e-002  2.8422724e-002 
 0.0000000e+000  4.6680957e-002  0.0000000e+000  0.0000000e+000  0.0000000e+000  6.2683276e-003  6.2683276e-003  6.2683276e-003 
 1.2196480e-002  4.6680957e-002 -2.0069121e-005  5.4263019e-005  5.7855377e-005  6.2710368e-003  6.2710368e-003  6.2710387e-003 
 3.7443161e-002  4.6680957e-002  1.0777796e-005 -3.8563554e-005  4.0041337e-005  6.2766448e-003  6.2766448e-003  6.2766457e-003 
 6.4457059e-002  4.6680957e-002  2.3553007e-004 -2.7080052e-004  3.5889738e-004  6.2893433e-003  6.2893433e-003  6.2894076e-003 
 9.3361929e-002  4.6680957e-002  7.8752666e-004 -5.8210600e-004  9.7930874e-004  6.3068620e-003  6.3068620e-003  6.3073416e-003 
 1.2429020e-001  4.6680957e-002  1.7685109e-003 -9.1698556e-004  1.9921078e-003  6.3246521e-003  6.3246521e-003  6.3266363e-003 
 1.5738344e-001  4.6680957e-002  3.2268879e-003 -1.2155408e-003  3.4482379e-003  6.3363519e-003  6.3363519e-003  6.3422970e-003 
 1.9279319e-001  4.6680957e-002  5.1351236e-003 -1.4166777e-003  5.3269570e-003  6.3334662e-003  6.3334662e-003  6.3476544e-003 
 2.3068160e-001  4.6680957e-002  7.3662824e-003 -1.4699484e-003  7.5115156e-003  6.3067451e-003  6.3067451e-003  6.3349567e-003 
 2.7122220e-001  4.6680957e-002  9.7140325e-003 -1.3606054e-003  9.8088570e-003  6.2515703e-003  6.2515703e-003  6.2996773e-003 
 3.1460077e-001  4.6680957e-002  1.1902779e-002 -1.0861921e-003  1.1952237e-002  6.1645494e-003  6.1645494e-003  6.2359772e-003 
 3.6101580e-001  4.6680957e-002  1.3626435e-002 -6.9269881e-004  1.3644030e-002  6.0507637e-003  6.0507637e-003  6.1438433e-003 
 4.1067982e-001  4.6680957e-002  1.4637178e-002 -2.5872124e-004  1.4639464e-002  5.9210989e-003  5.9210989e-003  6.0282559e-003 
 4.6382031e-001  4.6680957e-002  1.4812374e-002  1.1001117e-004  1.4812782e-002  5.7883910e-003  5.7883910e-003  5.8981003e-003 
 5.2068073e-001  4.6680957e-002  1.4306457e-002  2.9274682e-004  1.4309452e-002  5.6672180e-003  5.6672180e-003  5.7695983e-003 
 5.8152139e-001  4.6680957e-002  1.3564814e-002  1.9380228e-004  1.3566198e-002  5.5666608e-003  5.5666608e-003  5.6586815e-003 
 6.4662075e-001  4.6680957e-002  1.3315696e-002 -2.3619940e-004  1.3317791e-002  5.4633692e-003  5.4633692e-003  5.5520511e-003 
 7.1627712e-001  4.6680957e-002  1.4632258e-002 -9.8225079e-004  1.4665189e-002  5.3457697e-003  5.3457697e-003  5.4533035e-003 
 7.9080951e-001  4.6680957e-002  1.8049840e-002 -1.4635548e-003  1.8109078e-002  5.0751483e-003  5.0751483e-003  5.2391179e-003 
 8.7055916e-001  4.6680957e-002  2.1331087e-002 -8.8775333e-004  2.1349551e-002  4.4763065e-003  4.4763065e-003  4.7042081e-003 
 9.5589119e-001  4.6680957e-002  1.8682836e-002  1.7534051e-003  1.8764935e-002  3.3498618e-003  3.3498618e-003  3.5259232e-003 
 1.0441090e+000  4.6680957e-002 -2.3394055e-003  7.9127429e-003  8.2513224e-003  1.1640430e-003  1.1640430e-003  1.1980851e-003 
 1.1294410e+000  4.6680957e-002 -5.4463696e-002  1.7607937e-002  5.7239268e-002 -2.7372919e-003 -2.7372919e-003 -1.0991250e-003 
 1.2091905e+000  4.6680957e-002 -1.3656218e-001  2.7549038e-002  1.3931324e-001 -8.3083697e-003 -8.3083697e-003  1.3957201e-003 
 1.2837230e+000  4.6680957e-002 -2.2778155e-001  3.2285143e-002  2.3005818e-001 -1.4301145e-002 -1.4301145e-002  1.2162236e-002 
 1.3533795e+000  4.6680957e-002 -3.0013007e-001  2.8596967e-002  3.0148938e-001 -1.7669244e-002 -1.7669244e-002  2.7778680e-002 
 1.4184790e+000  4.6680957e-002 -3.3969969e-001  1.7557418e-002  3.4015310e-001 -1.5635779e-002 -1.5635779e-002  4.2216290e-002 
 1.4793196e+000  4.6680957e-002 -3.4635553e-001  3.3398517e-003  3.4637162e-001 -7.5592464e-003 -7.5592464e-003  5.2427407e-002 
 1.5361795e+000  4.6680957e-002 -3.2716930e-001 -1.3784878e-002  3.2745957e-001  4.8860917e-003  4.8860917e-003  5.8500979e-002 
 1.5893199e+000  4.6680957e-002 -2.8134793e-001 -3.1029072e-002  2.8305382e-001  1.8743934e-002  1.8743934e-002  5.8803666e-002 
 1.6389844e+000  4.6680957e-002 -2.1934602e-001 -4.4104762e-002  2.2373624e-001  3.0799769e-002  3.0799769e-002  5.5828720e-002 
 1.6853995e+000  4.6680957e-002 -1.4817083e-001 -5.0552025e-002  1.5655702e-001  3.8031779e-002  3.8031779e-002  5.0286829e-002 
 1.7287780e+000  4.6680957e-002 -7.7372365e-002 -4.7974989e-002  9.1038905e-002  3.9679799e-002  3.9679799e-002  4.3823842e-002 
 1.7693186e+000  4.6680957e-002 -1.6832337e-002 -3.4856502e-002  3.8707923e-002  3.7029535e-002  3.7029535e-002  3.7778687e-002 
 1.8072065e+000  4.6680957e-002  2.3144081e-002 -1.4564407e-002  2.7345391e-002  3.3062905e-002  3.3062905e-002  3.3436790e-002 
 1.8426166e+000  4.6680957e-002  3.7621021e-002  1.1791586e-003  3.7639495e-002  3.0359952e-002  3.0359952e-002  3.1068318e-002 
 1.8757100e+000  4.6680957e-002  3.5924729e-002  9.2295911e-003  3.7091393e-002  2.8996227e-002  2.8996227e-002  2.9684113e-002 
 1.9066380e+000  4.6680957e-002  2.6975783e-002  1.1872600e-002  2.9472893e-002  2.8412273e-002  2.8412273e-002  2.8846599e-002 
 1.9355431e+000  4.6680957e-002  1.6195759e-002  1.1367814e-002  1.9787112e-002  2.8190406e-002  2.8190406e-002  2.8386170e-002 
 1.9625571e+000  4.6680957e-002  6.5570991e-003  8.7034497e-003  1.0897045e-002  2.8127031e-002  2.8127031e-002  2.8186405e-002 
 1.9878035e+000  4.6680957e-002  7.9204468e-004  3.4922105e-003  3.5809034e-003  2.8333010e-002  2.8333010e-002  2.8339421e-002 
 2.0000000e+000  4.6680957e-002  0.0000000e+000  0.0000000e+000  0.0000000e+000  2.8432518e-002  2.8432518e-002  2.8432518e-002 
 0.0000000e+000  6.2145084e-002  0.0000000e+000  0.0000000e+000  0.0000000e+000  6.2573594e-003  6.2573594e-003  6.2573594e-003 
 1.2196480e-002  6.2145084e-002 -1.2954015e-005  4.5854144e-005  4.7648809e-005  6.2612407e-003  6.2612407e-003  6.2612416e-003 
 3.7443161e-002  6.2145084e-002  8.1290127e-005 -1.3682259e-004  1.5914932e-004  6.2692757e-003  6.2692757e-003  6.2692882e-003 
 6.4457059e-002  6.2145084e-002  4.3653685e-004 -5.2531657e-004  6.8302412e-004  6.2819161e-003  6.2819161e-003  6.2821493e-003 
 9.3361929e-002  6.2145084e-002  1.1902752e-003 -1.0360830e-003  1.5780440e-003  6.2986636e-003  6.2986636e-003  6.2999087e-003 
 1.2429020e-001  6.2145084e-002  2.4568299e-003 -1.5826231e-003  2.9224490e-003  6.3152583e-003  6.3152583e-003  6.3195289e-003 
 1.5738344e-001  6.2145084e-002  4.2894073e-003 -2.0688253e-003  4.7622528e-003  6.3255783e-003  6.3255783e-003  6.3369176e-003 
 1.9279319e-001  6.2145084e-002  6.6516697e-003 -2.3954252e-003  7.0698494e-003  6.3213725e-003  6.3213725e-003  6.3463640e-003 
 2.3068160e-001  6.2145084e-002  9.3932580e-003 -2.4813421e-003  9.7154696e-003  6.2937057e-003  6.2937057e-003  6.3409009e-003 
 2.7122220e-001  6.2145084e-002  1.2271956e-002 -2.3002983e-003  1.2485682e-002  6.2383567e-003  6.2383567e-003  6.3163028e-003 
 3.1460077e-001  6.2145084e-002  1.4963198e-002 -1.8479682e-003  1.5076879e-002  6.1521209e-003  6.1521209e-003  6.2657772e-003 
 3.6101580e-001  6.2145084e-002  1.7105835e-002 -1.1965436e-003  1.7147632e-002  6.0403217e-003  6.0403217e-003  6.1873421e-003 
 4.1067982e-001  6.2145084e-002  1.8399267e-002 -4.7161154e-004  1.8405309e-002  5.9137694e-003  5.9137694e-003  6.0831471e-003 
 4.6382031e-001  6.2145084e-002  1.8681081e-002  1.5080720e-004  1.8681690e-002  5.7846103e-003  5.7846103e-003  5.9591131e-003 
 5.2068073e-001  6.2145084e-002  1.8123057e-002  4.7266737e-004  1.8129220e-002  5.6666634e-003  5.6666634e-003  5.8309976e-003 
 5.8152139e-001  6.2145084e-002  1.7217351e-002  3.3481038e-004  1.7220607e-002  5.5686268e-003  5.5686268e-003  5.7169013e-003 
 6.4662075e-001  6.2145084e-002  1.6814502e-002 -3.4416866e-004  1.6818024e-002  5.4662335e-003  5.4662335e-003  5.6076567e-003 
 7.1627712e-001  6.2145084e-002  1.8099021e-002 -1.4969165e-003  1.8160818e-002  5.3498112e-003  5.3498112e-003  5.5147191e-003 
 7.9080951e-001  6.2145084e-002  2.1449255e-002 -2.1172334e-003  2.1553496e-002  5.0849738e-003  5.0849738e-003  5.3172503e-003 