Variables = "x","y", "Velocity_x", "Velocity_y", "Velocity_whole value", "Pressure", "Absolute pressure", "Total pressure"
Zone i=42, j=42
 0.0000000e+000  0.0000000e+000  0.0000000e+000  0.0000000e+000  0.0000000e+000  6.0316166e-003  6.0316166e-003  6.0316166e-003 
 6.0982401e-003  0.0000000e+000  0.0000000e+000  0.0000000e+000  0.0000000e+000  6.0314727e-003  6.0314727e-003  6.0314727e-003 
 1.8721581e-002  0.0000000e+000  0.0000000e+000  0.0000000e+000  0.0000000e+000  6.0311742e-003  6.0311742e-003  6.0311742e-003 
 3.2228529e-002  0.0000000e+000  0.0000000e+000  0.0000000e+000  0.0000000e+000  6.0312720e-003  6.0312720e-003  6.0312720e-003 
 4.6680957e-002  0.0000000e+000  0.0000000e+000  0.0000000e+000  0.0000000e+000  6.0319859e-003  6.0319859e-003  6.0319859e-003 
 6.2145084e-002  0.0000000e+000  0.0000000e+000  0.0000000e+000  0.0000000e+000  6.0334634e-003  6.0334634e-003  6.0334634e-003 
 7.8691721e-002  0.0000000e+000  0.0000000e+000  0.0000000e+000  0.0000000e+000  6.0358015e-003  6.0358015e-003  6.0358015e-003 
 9.6396603e-002  0.0000000e+000  0.0000000e+000  0.0000000e+000  0.0000000e+000  6.0390271e-003  6.0390271e-003  6.0390271e-003 
 1.1534080e-001  0.0000000e+000  0.0000000e+000  0.0000000e+000  0.0000000e+000  6.0431003e-003  6.0431003e-003  6.0431003e-003 
 1.3561110e-001  0.0000000e+000  0.0000000e+000  0.0000000e+000  0.0000000e+000  6.0478970e-003  6.0478970e-003  6.0478970e-003 
 1.5730035e-001  0.0000000e+000  0.0000000e+000  0.0000000e+000  0.0000000e+000  6.0532163e-003  6.0532163e-003  6.0532163e-003 
 1.8050785e-001  0.0000000e+000  0.0000000e+000  0.0000000e+000  0.0000000e+000  6.0587586e-003  6.0587586e-003  6.0587586e-003 
 2.0533991e-001  0.0000000e+000  0.0000000e+000  0.0000000e+000  0.0000000e+000  6.0641235e-003  6.0641235e-003  6.0641235e-003 
 2.3191020e-001  0.0000000e+000  0.0000000e+000  0.0000000e+000  0.0000000e+000  6.0687982e-003  6.0687982e-003  6.0687982e-003 
 2.6034039e-001  0.0000000e+000  0.0000000e+000  0.0000000e+000  0.0000000e+000  6.0721803e-003  6.0721803e-003  6.0721803e-003 
 2.9076070e-001  0.0000000e+000  0.0000000e+000  0.0000000e+000  0.0000000e+000  6.0736150e-003  6.0736150e-003  6.0736150e-003 
 3.2331041e-001  0.0000000e+000  0.0000000e+000  0.0000000e+000  0.0000000e+000  6.0724760e-003  6.0724760e-003  6.0724760e-003 
 3.5813856e-001  0.0000000e+000  0.0000000e+000  0.0000000e+000  0.0000000e+000  6.0682320e-003  6.0682320e-003  6.0682320e-003 
 3.9540476e-001  0.0000000e+000  0.0000000e+000  0.0000000e+000  0.0000000e+000  6.0606003e-003  6.0606003e-003  6.0606003e-003 
 4.3527961e-001  0.0000000e+000  0.0000000e+000  0.0000000e+000  0.0000000e+000  6.0496894e-003  6.0496894e-003  6.0496894e-003 
 4.7794560e-001  0.0000000e+000  0.0000000e+000  0.0000000e+000  0.0000000e+000  6.0360525e-003  6.0360525e-003  6.0360525e-003 
 5.2205443e-001  0.0000000e+000  0.0000000e+000  0.0000000e+000  0.0000000e+000  6.0212552e-003  6.0212552e-003  6.0212552e-003 
 5.6472039e-001  0.0000000e+000  0.0000000e+000  0.0000000e+000  0.0000000e+000  6.0081012e-003  6.0081012e-003  6.0081012e-003 
 6.0459524e-001  0.0000000e+000  0.0000000e+000  0.0000000e+000  0.0000000e+000  5.9977025e-003  5.9977025e-003  5.9977025e-003 
 6.4186144e-001  0.0000000e+000  0.0000000e+000  0.0000000e+000  0.0000000e+000  5.9899553e-003  5.9899553e-003  5.9899553e-003 
 6.7668962e-001  0.0000000e+000  0.0000000e+000  0.0000000e+000  0.0000000e+000  5.9846188e-003  5.9846188e-003  5.9846188e-003 
 7.0923930e-001  0.0000000e+000  0.0000000e+000  0.0000000e+000  0.0000000e+000  5.9813731e-003  5.9813731e-003  5.9813731e-003 
 7.3965955e-001  0.0000000e+000  0.0000000e+000  0.0000000e+000  0.0000000e+000  5.9799030e-003  5.9799030e-003  5.9799030e-003 
 7.6808977e-001  0.0000000e+000  0.0000000e+000  0.0000000e+000  0.0000000e+000  5.9799012e-003  5.9799012e-003  5.9799012e-003 
 7.9466009e-001  0.0000000e+000  0.0000000e+000  0.0000000e+000  0.0000000e+000  5.9810956e-003  5.9810956e-003  5.9810956e-003 
 8.1949216e-001  0.0000000e+000  0.0000000e+000  0.0000000e+000  0.0000000e+000  5.9832423e-003  5.9832423e-003  5.9832423e-003 
 8.4269965e-001  0.0000000e+000  0.0000000e+000  0.0000000e+000  0.0000000e+000  5.9860977e-003  5.9860977e-003  5.9860977e-003 
 8.6438888e-001  0.0000000e+000  0.0000000e+000  0.0000000e+000  0.0000000e+000  5.9894221e-003  5.9894221e-003  5.9894221e-003 
 8.8465917e-001  0.0000000e+000  0.0000000e+000  0.0000000e+000  0.0000000e+000  5.9929728e-003  5.9929728e-003  5.9929728e-003 
 9.0360343e-001  0.0000000e+000  0.0000000e+000  0.0000000e+000  0.0000000e+000  5.9965118e-003  5.9965118e-003  5.9965118e-003 
 9.2130828e-001  0.0000000e+000  0.0000000e+000  0.0000000e+000  0.0000000e+000  5.9998091e-003  5.9998091e-003  5.9998091e-003 
 9.3785501e-001  0.0000000e+000  0.0000000e+000  0.0000000e+000  0.0000000e+000  6.0026622e-003  6.0026622e-003  6.0026622e-003 
 9.5331907e-001  0.0000000e+000  0.0000000e+000  0.0000000e+000  0.0000000e+000  6.0049105e-003  6.0049105e-003  6.0049105e-003 
 9.6777147e-001  0.0000000e+000  0.0000000e+000  0.0000000e+000  0.0000000e+000  6.0063540e-003  6.0063540e-003  6.0063540e-003 
 9.8127842e-001  0.0000000e+000  0.0000000e+000  0.0000000e+000  0.0000000e+000  6.0069757e-003  6.0069757e-003  6.0069757e-003 
 9.9390173e-001  0.0000000e+000  0.0000000e+000  0.0000000e+000  0.0000000e+000  6.0068537e-003  6.0068537e-003  6.0068537e-003 
 1.0000000e+000  0.0000000e+000  0.0000000e+000  0.0000000e+000  0.0000000e+000  6.0067945e-003  6.0067945e-003  6.0067945e-003 
 0.0000000e+000  1.2196480e-002  0.0000000e+000  0.0000000e+000  0.0000000e+000  6.0317889e-003  6.0317889e-003  6.0317889e-003 
 6.0982401e-003  1.2196480e-002 -2.4287147e-007  9.1567256e-007  9.4733457e-007  6.0316254e-003  6.0316254e-003  6.0316254e-003 
 1.8721581e-002  1.2196480e-002 -3.7159912e-006  3.2252835e-006  4.9204718e-006  6.0312869e-003  6.0312869e-003  6.0312869e-003 
 3.2228529e-002  1.2196480e-002 -1.0472525e-005  4.6689088e-006  1.1466145e-005  6.0313675e-003  6.0313675e-003  6.0313675e-003 
 4.6680957e-002  1.2196480e-002 -1.8647999e-005  5.1287911e-006  1.9340434e-005  6.0320268e-003  6.0320268e-003  6.0320268e-003 
 6.2145084e-002  1.2196480e-002 -2.6225305e-005  4.7729573e-006  2.6656102e-005  6.0333735e-003  6.0333735e-003  6.0333740e-003 
 7.8691721e-002  1.2196480e-002 -3.1099968e-005  3.8045291e-006  3.1331812e-005  6.0354904e-003  6.0354904e-003  6.0354909e-003 
 9.6396603e-002  1.2196480e-002 -3.1062751e-005  2.4031392e-006  3.1155570e-005  6.0384069e-003  6.0384069e-003  6.0384073e-003 
 1.1534080e-001  1.2196480e-002 -2.3830995e-005  7.0203572e-007  2.3841334e-005  6.0420921e-003  6.0420921e-003  6.0420926e-003 
 1.3561110e-001  1.2196480e-002 -7.1258019e-006 -1.1985132e-006  7.2258899e-006  6.0464437e-003  6.0464437e-003  6.0464437e-003 
 1.5730035e-001  1.2196480e-002  2.1231739e-005 -3.2105838e-006  2.1473114e-005  6.0512847e-003  6.0512847e-003  6.0512847e-003 
 1.8050785e-001  1.2196480e-002  6.3154985e-005 -5.2391747e-006  6.3371925e-005  6.0563469e-003  6.0563469e-003  6.0563488e-003 
 2.0533991e-001  1.2196480e-002  1.2003860e-004 -7.1651048e-006  1.2025225e-004  6.0612648e-003  6.0612648e-003  6.0612722e-003 
 2.3191020e-001  1.2196480e-002  1.9240360e-004 -8.8390379e-006  1.9260653e-004  6.0655675e-003  6.0655675e-003  6.0655861e-003 
 2.6034039e-001  1.2196480e-002  2.7947471e-004 -1.0084951e-005  2.7965661e-004  6.0686953e-003  6.0686953e-003  6.0687345e-003 
 2.9076070e-001  1.2196480e-002  3.7871450e-004 -1.0711407e-005  3.7886595e-004  6.0700374e-003  6.0700374e-003  6.0701091e-003 
 3.2331041e-001  1.2196480e-002  4.8555498e-004 -1.0608019e-005  4.8567084e-004  6.0690073e-003  6.0690073e-003  6.0691251e-003 
 3.5813856e-001  1.2196480e-002  5.9310929e-004 -9.6164113e-006  5.9318723e-004  6.0650995e-003  6.0650995e-003  6.0652755e-003 
 3.9540476e-001  1.2196480e-002  6.9217518e-004 -7.7234999e-006  6.9221825e-004  6.0580419e-003  6.0580419e-003  6.0582818e-003 
 4.3527961e-001  1.2196480e-002  7.7200448e-004 -5.0813705e-006  7.7202119e-004  6.0479282e-003  6.0479282e-003  6.0482263e-003 
 4.7794560e-001  1.2196480e-002  8.2123163e-004 -1.9003562e-006  8.2123384e-004  6.0352609e-003  6.0352609e-003  6.0355980e-003 
 5.2205443e-001  1.2196480e-002  8.2884269e-004  1.7561918e-006  8.2884455e-004  6.0214954e-003  6.0214954e-003  6.0218391e-003 
 5.6472039e-001  1.2196480e-002  7.9662545e-004  4.3479336e-006  7.9663732e-004  6.0092607e-003  6.0092607e-003  6.0095778e-003 
 6.0459524e-001  1.2196480e-002  7.3755329e-004  5.9787380e-006  7.3757750e-004  5.9996005e-003  5.9996005e-003  5.9998725e-003 
 6.4186144e-001  1.2196480e-002  6.6248630e-004  7.0706697e-006  6.6252402e-004  5.9924070e-003  5.9924070e-003  5.9926263e-003 
 6.7668962e-001  1.2196480e-002  5.7913386e-004  7.7328650e-006  5.7918549e-004  5.9874589e-003  5.9874589e-003  5.9876265e-003 
 7.0923930e-001  1.2196480e-002  4.9319182e-004  8.0638547e-006  4.9325771e-004  5.9844586e-003  5.9844586e-003  5.9845801e-003 
 7.3965955e-001  1.2196480e-002  4.0875899e-004  8.1456128e-006  4.0884013e-004  5.9831054e-003  5.9831054e-003  5.9831887e-003 
 7.6808977e-001  1.2196480e-002  3.2875268e-004  8.0037726e-006  3.2885009e-004  5.9831087e-003  5.9831087e-003  5.9831627e-003 
 7.9466009e-001  1.2196480e-002  2.5523515e-004  7.6564911e-006  2.5534997e-004  5.9842076e-003  5.9842076e-003  5.9842402e-003 
 8.1949216e-001  1.2196480e-002  1.8968714e-004  7.0711994e-006  1.8981889e-004  5.9861680e-003  5.9861680e-003  5.9861862e-003 
 8.4269965e-001  1.2196480e-002  1.3315283e-004  6.2216386e-006  1.3329810e-004  5.9887604e-003  5.9887604e-003  5.9887692e-003 
 8.6438888e-001  1.2196480e-002  8.6259162e-005  5.0864246e-006  8.6408996e-005  5.9917606e-003  5.9917606e-003  5.9917644e-003 
 8.8465917e-001  1.2196480e-002  4.9231046e-005  3.6570525e-006  4.9366688e-005  5.9949467e-003  5.9949467e-003  5.9949481e-003 
 9.0360343e-001  1.2196480e-002  2.1894019e-005  1.9477989e-006  2.1980492e-005  5.9981062e-003  5.9981062e-003  5.9981067e-003 
 9.2130828e-001  1.2196480e-002  3.6719239e-006  2.0771164e-008  3.6719825e-006  6.0010389e-003  6.0010389e-003  6.0010389e-003 
 9.3785501e-001  1.2196480e-002 -6.4167148e-006 -1.9802342e-006  6.7153223e-006  6.0035717e-003  6.0035717e-003  6.0035717e-003 
 9.5331907e-001  1.2196480e-002 -9.7301327e-006 -3.8166895e-006  1.0451919e-005  6.0055689e-003  6.0055689e-003  6.0055689e-003 
 9.6777147e-001  1.2196480e-002 -8.1723256e-006 -5.1987026e-006  9.6857329e-006  6.0068876e-003  6.0068876e-003  6.0068876e-003 
 9.8127842e-001  1.2196480e-002 -4.2446245e-006 -5.3485528e-006  6.8281661e-006  6.0074939e-003  6.0074939e-003  6.0074939e-003 
 9.9390173e-001  1.2196480e-002 -8.5631399e-007 -3.0172316e-006  3.1363929e-006  6.0074693e-003  6.0074693e-003  6.0074693e-003 
 1.0000000e+000  1.2196480e-002  0.0000000e+000  0.0000000e+000  0.0000000e+000  6.0074572e-003  6.0074572e-003  6.0074572e-003 
 0.0000000e+000  3.7443161e-002  0.0000000e+000  0.0000000e+000  0.0000000e+000  6.0321456e-003  6.0321456e-003  6.0321456e-003 
 6.0982401e-003  3.7443161e-002 -1.0723353e-006  7.3425990e-006  7.4204895e-006  6.0319416e-003  6.0319416e-003  6.0319416e-003 
 1.8721581e-002  3.7443161e-002 -7.5198477e-006  1.8345847e-005  1.9827208e-005  6.0315197e-003  6.0315197e-003  6.0315197e-003 
 3.2228529e-002  3.7443161e-002 -1.7971088e-005  2.3578299e-005  2.9646184e-005  6.0315654e-003  6.0315654e-003  6.0315658e-003 
 4.6680957e-002  3.7443161e-002 -2.8839555e-005  2.2780345e-005  3.6751382e-005  6.0321121e-003  6.0321121e-003  6.0321125e-003 
 6.2145084e-002  3.7443161e-002 -3.6115089e-005  1.6263981e-005  3.9608291e-005  6.0331877e-003  6.0331877e-003  6.0331887e-003 
 7.8691721e-002  3.7443161e-002 -3.5262667e-005  4.6273840e-006  3.5564986e-005  6.0348464e-003  6.0348464e-003  6.0348469e-003 
 9.6396603e-002  3.7443161e-002 -2.1136635e-005 -1.1386398e-005  2.4008486e-005  6.0371226e-003  6.0371226e-003  6.0371230e-003 
 1.1534080e-001  3.7443161e-002  1.1887738e-005 -3.0932035e-005  3.3137730e-005  6.0400055e-003  6.0400055e-003  6.0400059e-003 
 1.3561110e-001  3.7443161e-002  6.9652917e-005 -5.3057502e-005  8.7559281e-005  6.0434355e-003  6.0434355e-003  6.0434393e-003 
 1.5730035e-001  3.7443161e-002  1.5788439e-004 -7.6647309e-005  1.7550582e-004  6.0472866e-003  6.0472866e-003  6.0473019e-003 
 1.8050785e-001  3.7443161e-002  2.8165063e-004 -1.0034730e-004  2.9899273e-004  6.0513546e-003  6.0513546e-003  6.0513993e-003 
 2.0533991e-001  3.7443161e-002  4.4467248e-004 -1.2252299e-004  4.6124341e-004  6.0553472e-003  6.0553472e-003  6.0554533e-003 
 2.3191020e-001  3.7443161e-002  6.4837572e-004 -1.4125773e-004  6.6358480e-004  6.0588797e-003  6.0588797e-003  6.0590999e-003 
 2.6034039e-001  3.7443161e-002  8.9076639e-004 -1.5440668e-004  9.0404990e-004  6.0614818e-003  6.0614818e-003  6.0618906e-003 
 2.9076070e-001  3.7443161e-002  1.1652356e-003 -1.5980250e-004  1.1761424e-003  6.0626315e-003  6.0626315e-003  6.0633230e-003 
 3.2331041e-001  3.7443161e-002  1.4597455e-003 -1.5570389e-004  1.4680261e-003  6.0618268e-003  6.0618268e-003  6.0629044e-003 
 3.5813856e-001  3.7443161e-002  1.7560264e-003 -1.4060338e-004  1.7616464e-003  6.0586152e-003  6.0586152e-003  6.0601668e-003 
 3.9540476e-001  3.7443161e-002  2.0295633e-003 -1.1414007e-004  2.0327703e-003  6.0527464e-003  6.0527464e-003  6.0548126e-003 
 4.3527961e-001  3.7443161e-002  2.2512500e-003 -7.7411969e-005  2.2525806e-003  6.0442830e-003  6.0442830e-003  6.0468200e-003 
 4.7794560e-001  3.7443161e-002  2.3897388e-003 -3.2837292e-005  2.3899644e-003  6.0336227e-003  6.0336227e-003  6.0364786e-003 
 5.2205443e-001  3.7443161e-002  2.4148792e-003  1.4627465e-005  2.4149234e-003  6.0219928e-003  6.0219928e-003  6.0249087e-003 
 5.6472039e-001  3.7443161e-002  2.3304066e-003  5.5022054e-005  2.3310559e-003  6.0116607e-003  6.0116607e-003  6.0143778e-003 
 6.0459524e-001  3.7443161e-002  2.1690859e-003  8.5734973e-005  2.1707795e-003  6.0035298e-003  6.0035298e-003  6.0058860e-003 
 6.4186144e-001  3.7443161e-002  1.9604939e-003  1.0820598e-004  1.9634778e-003  5.9974818e-003  5.9974818e-003  5.9994096e-003 
 6.7668962e-001  3.7443161e-002  1.7266870e-003  1.2358592e-004  1.7311041e-003  5.9933378e-003  5.9933378e-003  5.9948363e-003 
 7.0923930e-001  3.7443161e-002  1.4842157e-003  1.3293939e-004  1.4901574e-003  5.9908452e-003  5.9908452e-003  5.9919553e-003 
 7.3965955e-001  3.7443161e-002  1.2451685e-003  1.3714972e-004  1.2526989e-003  5.9897345e-003  5.9897345e-003  5.9905192e-003 
 7.6808977e-001  3.7443161e-002  1.0182142e-003  1.3682440e-004  1.0273660e-003  5.9897485e-003  5.9897485e-003  5.9902761e-003 
 7.9466009e-001  3.7443161e-002  8.0943457e-004  1.3242681e-004  8.2019583e-004  5.9906491e-003  5.9906491e-003  5.9909853e-003 
 8.1949216e-001  3.7443161e-002  6.2300230e-004  1.2419846e-004  6.3526147e-004  5.9922240e-003  5.9922240e-003  5.9924256e-003 
 8.4269965e-001  3.7443161e-002  4.6158987e-004  1.1244366e-004  4.7508819e-004  5.9942724e-003  5.9942724e-003  5.9943851e-003 
 8.6438888e-001  3.7443161e-002  3.2650400e-004  9.7587101e-005  3.4077573e-004  5.9966012e-003  5.9966012e-003  5.9966594e-003 
 8.8465917e-001  3.7443161e-002  2.1781470e-004  8.0221464e-005  2.3211792e-004  5.9990324e-003  5.9990324e-003  5.9990594e-003 
 9.0360343e-001  3.7443161e-002  1.3445505e-004  6.1163424e-005  1.4771298e-004  6.0014063e-003  6.0014063e-003  6.0014171e-003 
 9.2130828e-001  3.7443161e-002  7.4350130e-005  4.1490162e-005  8.5143263e-005  6.0035842e-003  6.0035842e-003  6.0035880e-003 
 9.3785501e-001  3.7443161e-002  3.4551300e-005  2.2581440e-005  4.1276067e-005  6.0054543e-003  6.0054543e-003  6.0054553e-003 
 9.5331907e-001  3.7443161e-002  1.1386051e-005  6.1328251e-006  1.2932660e-005  6.0069319e-003  6.0069319e-003  6.0069319e-003 
 9.6777147e-001  3.7443161e-002  7.3616661e-007 -5.8745245e-006  5.9204713e-006  6.0079922e-003  6.0079922e-003  6.0079922e-003 
 9.8127842e-001  3.7443161e-002 -1.8934679e-006 -1.1069593e-005  1.1230365e-005  6.0085668e-003  6.0085668e-003  6.0085668e-003 
 9.9390173e-001  3.7443161e-002 -8.8140786e-007 -6.9055827e-006  6.9616058e-006  6.0087433e-003  6.0087433e-003  6.0087433e-003 
 1.0000000e+000  3.7443161e-002  0.0000000e+000  0.0000000e+000  0.0000000e+000  6.0088285e-003  6.0088285e-003  6.0088285e-003 
 0.0000000e+000  6.4457059e-002  0.0000000e+000  0.0000000e+000  0.0000000e+000  6.0299523e-003  6.0299523e-003  6.0299523e-003 
 6.0982401e-003  6.4457059e-002 -8.6343704e-007  1.5954029e-005  1.5977377e-005  6.0298089e-003  6.0298089e-003  6.0298089e-003 
 1.8721581e-002  6.4457059e-002 -5.6486979e-006  3.6361864e-005  3.6798003e-005  6.0295118e-003  6.0295118e-003  6.0295123e-003 
 3.2228529e-002  6.4457059e-002 -1.1991774e-005  4.2635100e-005  4.4289438e-005  6.0296576e-003  6.0296576e-003  6.0296585e-003 
 4.6680957e-002  6.4457059e-002 -1.5244842e-005  3.4873097e-005  3.8059665e-005  6.0302676e-003  6.0302676e-003  6.0302685e-003 
 6.2145084e-002  6.4457059e-002 -1.0047570e-005  1.3539930e-005  1.6860704e-005  6.0313442e-003  6.0313442e-003  6.0313442e-003 
 7.8691721e-002  6.4457059e-002  9.7914408e-006 -2.0466812e-005  2.2688382e-005  6.0329232e-003  6.0329232e-003  6.0329237e-003 
 9.6396603e-002  6.4457059e-002  5.1399977e-005 -6.5800727e-005  8.3496663e-005  6.0350266e-003  6.0350266e-003  6.0350299e-003 
 1.1534080e-001  6.4457059e-002  1.2269280e-004 -1.2064193e-004  1.7206975e-004  6.0376460e-003  6.0376460e-003  6.0376609e-003 
 1.3561110e-001  6.4457059e-002  2.3201290e-004 -1.8262106e-004  2.9526334e-004  6.0407296e-003  6.0407296e-003  6.0407734e-003 
 1.5730035e-001  6.4457059e-002  3.8759396e-004 -2.4870294e-004  4.6052385e-004  6.0441727e-003  6.0441727e-003  6.0442789e-003 
 1.8050785e-001  6.4457059e-002  5.9674797e-004 -3.1506427e-004  6.7481375e-004  6.0478011e-003  6.0478011e-003  6.0480288e-003 
 2.0533991e-001  6.4457059e-002  8.6477079e-004 -3.7701763e-004  9.4338262e-004  6.0513616e-003  6.0513616e-003  6.0518067e-003 
 2.3191020e-001  6.4457059e-002  1.1935208e-003 -4.2904593e-004  1.2682951e-003  6.0545164e-003  6.0545164e-003  6.0553206e-003 
 2.6034039e-001  6.4457059e-002  1.5797424e-003 -4.6502514e-004  1.6467648e-003  6.0568480e-003  6.0568480e-003  6.0582040e-003 
 2.9076070e-001  6.4457059e-002  2.0132735e-003 -4.7875603e-004  2.0694148e-003  6.0578878e-003  6.0578878e-003  6.0600289e-003 
 3.2331041e-001  6.4457059e-002  2.4758088e-003 -4.6511149e-004  2.5191186e-003  6.0571991e-003  6.0571991e-003  6.0603721e-003 
 3.5813856e-001  6.4457059e-002  2.9396203e-003 -4.1976478e-004  2.9694394e-003  6.0543697e-003  6.0543697e-003  6.0587786e-003 
 3.9540476e-001  6.4457059e-002  3.3674920e-003 -3.4147632e-004  3.3847613e-003  6.0491823e-003  6.0491823e-003  6.0549104e-003 
 4.3527961e-001  6.4457059e-002  3.7149077e-003 -2.3294943e-004  3.7222044e-003  6.0417079e-003  6.0417079e-003  6.0486351e-003 
 4.7794560e-001  6.4457059e-002  3.9334269e-003 -1.0098668e-004  3.9347229e-003  6.0322983e-003  6.0322983e-003  6.0400395e-003 
 5.2205443e-001  6.4457059e-002  3.9761006e-003  3.8748753e-005  3.9762892e-003  6.0220398e-003  6.0220398e-003  6.0299453e-003 
 5.6472039e-001  6.4457059e-002  3.8477916e-003  1.6059670e-004  3.8511415e-003  6.0129943e-003  6.0129943e-003  6.0204100e-003 
 6.0459524e-001  6.4457059e-002  3.5965482e-003  2.5563317e-004  3.6056216e-003  6.0059535e-003  6.0059535e-003  6.0124537e-003 
 6.4186144e-001  6.4457059e-002  3.2679243e-003  3.2612708e-004  3.2841573e-003  6.0007405e-003  6.0007405e-003  6.0061333e-003 
 6.7668962e-001  6.4457059e-002  2.8968821e-003  3.7501892e-004  2.9210555e-003  5.9971861e-003  5.9971861e-003  6.0014524e-003 
 7.0923930e-001  6.4457059e-002  2.5100557e-003  4.0527582e-004  2.5425632e-003  5.9950608e-003  5.9950608e-003  5.9982929e-003 
 7.3965955e-001  6.4457059e-002  2.1271019e-003  4.1945773e-004  2.1680654e-003  5.9941192e-003  5.9941192e-003  5.9964694e-003 
 7.6808977e-001  6.4457059e-002  1.7621423e-003  4.1953952e-004  1.8113969e-003  5.9941341e-003  5.9941341e-003  5.9957746e-003 
 7.9466009e-001  6.4457059e-002  1.4249927e-003  4.0716480e-004  1.4820214e-003  5.9948917e-003  5.9948917e-003  5.9959898e-003 
 8.1949216e-001  6.4457059e-002  1.1221956e-003  3.8345062e-004  1.1858994e-003  5.9962212e-003  5.9962212e-003  5.9969244e-003 
 8.4269965e-001  6.4457059e-002  8.5774314e-004  3.4971739e-004  9.2629669e-004  5.9979549e-003  5.9979549e-003  5.9983837e-003 
 8.6438888e-001  6.4457059e-002  6.3337892e-004  3.0758034e-004  7.0411258e-004  5.9999418e-003  5.9999418e-003  6.0001896e-003 
 8.8465917e-001  6.4457059e-002  4.4894419e-004  2.5905034e-004  5.1832228e-004  6.0020429e-003  6.0020429e-003  6.0021770e-003 
 9.0360343e-001  6.4457059e-002  3.0264290e-004  2.0659711e-004  3.6643565e-004  6.0041375e-003  6.0041375e-003  6.0042045e-003 
 9.2130828e-001  6.4457059e-002  1.9136799e-004  1.5312906e-004  2.4509226e-004  6.0061235e-003  6.0061235e-003  6.0061533e-003 
 9.3785501e-001  6.4457059e-002  1.1100761e-004  1.0195681e-004  1.5072452e-004  6.0079196e-003  6.0079196e-003  6.0079307e-003 
 9.5331907e-001  6.4457059e-002  5.6769917e-005  5.6700293e-005  8.0235572e-005  6.0094632e-003  6.0094632e-003  6.0094665e-003 
 9.6777147e-001  6.4457059e-002  2.3485787e-005  2.1168062e-005  3.1617543e-005  6.0107070e-003  6.0107070e-003  6.0107075e-003 
 9.8127842e-001  6.4457059e-002  5.9945914e-006 -9.2140999e-007  6.0649918e-006  6.0116453e-003  6.0116453e-003  6.0116453e-003 
 9.9390173e-001  6.4457059e-002 -1.0008881e-007 -5.8929154e-006  5.8937653e-006  6.0124192e-003  6.0124192e-003  6.0124192e-003 
 1.0000000e+000  6.4457059e-002  0.0000000e+000  0.0000000e+000  0.0000000e+000  6.0127932e-003  6.0127932e-003  6.0127932e-003 
 0.0000000e+000  9.3361929e-002  0.0000000e+000  0.0000000e+000  0.0000000e+000  6.0254144e-003  6.0254144e-003  6.0254144e-003 
 6.0982401e-003  9.3361929e-002 -4.6268636e-007  2.0558864e-005  2.0564070e-005  6.0254587e-003  6.0254587e-003  6.0254587e-003 
 1.8721581e-002  9.3361929e-002 -8.3779912e-007  4.3151962e-005  4.3160093e-005  6.0255500e-003  6.0255500e-003  6.0255509e-003 
 3.2228529e-002  9.3361929e-002  2.3850978e-006  4.2649441e-005  4.2716081e-005  6.0259849e-003  6.0259849e-003  6.0259858e-003 
 4.6680957e-002  9.3361929e-002  1.4287448e-005  1.8921191e-005  2.3709548e-005  6.0268128e-003  6.0268128e-003  6.0268133e-003 
 6.2145084e-002  9.3361929e-002  4.1128478e-005 -2.7688560e-005  4.9580318e-005  6.0280552e-003  6.0280552e-003  6.0280566e-003 
 7.8691721e-002  9.3361929e-002  9.0333626e-005 -9.6124364e-005  1.3190927e-004  6.0297409e-003  6.0297409e-003  6.0297498e-003 
 9.6396603e-002  9.3361929e-002  1.7049332e-004 -1.8449649e-004  2.5121093e-004  6.0318895e-003  6.0318895e-003  6.0319211e-003 
 1.1534080e-001  9.3361929e-002  2.9117073e-004 -2.8990145e-004  4.1088107e-004  6.0344934e-003  6.0344934e-003  6.0345777e-003 
 1.3561110e-001  9.3361929e-002  4.6247544e-004 -4.0822662e-004  6.1687315e-004  6.0375100e-003  6.0375100e-003  6.0377005e-003 
 1.5730035e-001  9.3361929e-002  6.9435820e-004 -5.3389982e-004  8.7588944e-004  6.0408451e-003  6.0408451e-003  6.0412288e-003 
 1.8050785e-001  9.3361929e-002  9.9556451e-004 -6.5969327e-004  1.1942964e-003  6.0443408e-003  6.0443408e-003  6.0450542e-003 
 2.0533991e-001  9.3361929e-002  1.3722007e-003 -7.7661983e-004  1.5767285e-003  6.0477634e-003  6.0477634e-003  6.0490062e-003 
 2.3191020e-001  9.3361929e-002  1.8259228e-003 -8.7404135e-004  2.0243374e-003  6.0507967e-003  6.0507967e-003  6.0528456e-003 
 2.6034039e-001  9.3361929e-002  2.3517853e-003 -9.4014523e-004  2.5327390e-003  6.0530482e-003  6.0530482e-003  6.0562557e-003 
 2.9076070e-001  9.3361929e-002  2.9360345e-003 -9.6296537e-004  3.0899192e-003  6.0540782e-003  6.0540782e-003  6.0588522e-003 
 3.2331041e-001  9.3361929e-002  3.5545800e-003 -9.3253137e-004  3.6748678e-003  6.0534985e-003  6.0534985e-003  6.0602510e-003 
 3.5813856e-001  9.3361929e-002  4.1713137e-003 -8.4034743e-004  4.2551197e-003  6.0509206e-003  6.0509206e-003  6.0599735e-003 
 3.9540476e-001  9.3361929e-002  4.7380165e-003 -6.8379223e-004  4.7871047e-003  6.0461648e-003  6.0461648e-003  6.0576228e-003 
 4.3527961e-001  9.3361929e-002  5.1970654e-003 -4.6764262e-004  5.2180625e-003  6.0393354e-003  6.0393354e-003  6.0529495e-003 
 4.7794560e-001  9.3361929e-002  5.4854248e-003 -2.0481419e-004  5.4892469e-003  6.0307756e-003  6.0307756e-003  6.0458416e-003 
 5.2205443e-001  9.3361929e-002  5.5415058e-003  7.3191623e-005  5.5419891e-003  6.0214913e-003  6.0214913e-003  6.0368483e-003 
 5.6472039e-001  9.3361929e-002  5.3717997e-003  3.1845085e-004  5.3812307e-003  6.0134609e-003  6.0134609e-003  6.0279397e-003 
 6.0459524e-001  9.3361929e-002  5.0371229e-003  5.1253306e-004  5.0631310e-003  6.0073715e-003  6.0073715e-003  6.0201893e-003 
 6.4186144e-001  9.3361929e-002  4.5968876e-003  6.5799581e-004  4.6437415e-003  6.0029412e-003  6.0029412e-003  6.0137236e-003 
 6.7668962e-001  9.3361929e-002  4.0974389e-003  7.5992802e-004  4.1673128e-003  5.9999805e-003  5.9999805e-003  6.0086637e-003 
 7.0923930e-001  9.3361929e-002  3.5745015e-003  8.2394475e-004  3.6682347e-003  5.9982650e-003  5.9982650e-003  6.0049929e-003 
 7.3965955e-001  9.3361929e-002  3.0546435e-003  8.5512880e-004  3.1720800e-003  5.9975632e-003  5.9975632e-003  6.0025943e-003 
 7.6808977e-001  9.3361929e-002  2.5569980e-003  8.5766212e-004  2.6970026e-003  5.9976727e-003  5.9976727e-003  6.0013095e-003 
 7.9466009e-001  9.3361929e-002  2.0947561e-003  8.3524251e-004  2.2551348e-003  5.9984056e-003  5.9984056e-003  6.0009486e-003 
 8.1949216e-001  9.3361929e-002  1.6766287e-003  7.9054956e-004  1.8536592e-003  5.9996312e-003  5.9996312e-003  6.0013491e-003 
 8.4269965e-001  9.3361929e-002  1.3078249e-003  7.2664942e-004  1.4961368e-003  6.0012224e-003  6.0012224e-003  6.0023414e-003 
 8.6438888e-001  9.3361929e-002  9.9061255e-004  6.4701895e-004  1.1831934e-003  6.0030632e-003  6.0030632e-003  6.0037631e-003 
 8.8465917e-001  9.3361929e-002  7.2484475e-004  5.5567827e-004  9.1333361e-004  6.0050515e-003  6.0050515e-003  6.0054688e-003 
 9.0360343e-001  9.3361929e-002  5.0845381e-004  4.5721099e-004  6.8378885e-004  6.0070991e-003  6.0070991e-003  6.0073328e-003 
 9.2130828e-001  9.3361929e-002  3.3790004e-004  3.5665600e-004  4.9130432e-004  6.0091312e-003  6.0091312e-003  6.0092518e-003 
 9.3785501e-001  9.3361929e-002  2.0863368e-004  2.5934659e-004  3.3284930e-004  6.0110884e-003  6.0110884e-003  6.0111438e-003 
 9.5331907e-001  9.3361929e-002  1.1547030e-004  1.7069165e-004  2.0608015e-004  6.0129170e-003  6.0129170e-003  6.0129385e-003 
 9.6777147e-001  9.3361929e-002  5.2913987e-005  9.5902396e-005  1.0953155e-004  6.0145683e-003  6.0145683e-003  6.0145743e-003 
 9.8127842e-001  9.3361929e-002  1.5796742e-005  3.9694187e-005  4.2721957e-005  6.0160998e-003  6.0160998e-003  6.0161008e-003 
 9.9390173e-001  9.3361929e-002  5.0751845e-007  6.2727636e-006  6.2932613e-006  6.0178107e-003  6.0178107e-003  6.0178107e-003 
 1.0000000e+000  9.3361929e-002  0.0000000e+000  0.0000000e+000  0.0000000e+000  6.0186372e-003  6.0186372e-003  6.0186372e-003 
 0.0000000e+000  1.2429020e-001  0.0000000e+000  0.0000000e+000  0.0000000e+000  6.0186707e-003  6.0186707e-003  6.0186707e-003 
 6.0982401e-003  1.2429020e-001 -1.2411816e-007  1.8249599e-005  1.8250021e-005  6.0190074e-003  6.0190074e-003  6.0190074e-003 
 1.8721581e-002  1.2429020e-001  5.3021895e-006  3.0088557e-005  3.0552161e-005  6.0197045e-003  6.0197045e-003  6.0197050e-003 
 3.2228529e-002  1.2429020e-001  2.1430056e-005  9.9113058e-006  2.3611041e-005  6.0205669e-003  6.0205669e-003  6.0205674e-003 
 4.6680957e-002  1.2429020e-001  5.3557371e-005 -4.3138392e-005  6.8770001e-005  6.0217679e-003  6.0217679e-003  6.0217702e-003 
 6.2145084e-002  1.2429020e-001  1.0882937e-004 -1.2913509e-004  1.6887778e-004  6.0233558e-003  6.0233558e-003  6.0233702e-003 
 7.8691721e-002  1.2429020e-001  1.9581143e-004 -2.4702676e-004  3.1522108e-004  6.0253479e-003  6.0253479e-003  6.0253977e-003 
 9.6396603e-002  1.2429020e-001  3.2433411e-004 -3.9437821e-004  5.1061413e-004  6.0277572e-003  6.0277572e-003  6.0278876e-003 
 1.1534080e-001  1.2429020e-001  5.0526712e-004 -5.6704326e-004  7.5949519e-004  6.0305768e-003  6.0305768e-003  6.0308650e-003 
 1.3561110e-001  1.2429020e-001  7.5002003e-004 -7.5877190e-004  1.0668950e-003  6.0337661e-003  6.0337661e-003  6.0343351e-003 
 1.5730035e-001  1.2429020e-001  1.0696634e-003 -9.6081709e-004  1.4378281e-003  6.0372315e-003  6.0372315e-003  6.0382653e-003 
 1.8050785e-001  1.2429020e-001  1.4736503e-003 -1.1616067e-003  1.8764263e-003  6.0408218e-003  6.0408218e-003  6.0425824e-003 
 2.0533991e-001  1.2429020e-001  1.9680934e-003 -1.3466338e-003  2.3847043e-003  6.0443063e-003  6.0443063e-003  6.0471497e-003 
 2.3191020e-001  1.2429020e-001  2.5535729e-003 -1.4986913e-003  2.9608798e-003  6.0473727e-003  6.0473727e-003  6.0517560e-003 
 2.6034039e-001  1.2429020e-001  3.2226129e-003 -1.5987118e-003  3.5973759e-003  6.0496340e-003  6.0496340e-003  6.0561043e-003 
 2.9076070e-001  1.2429020e-001  3.9572557e-003 -1.6274607e-003  4.2788433e-003  6.0506742e-003  6.0506742e-003  6.0598287e-003 
 3.2331041e-001  1.2429020e-001  4.7272942e-003 -1.5689464e-003  4.9808538e-003  6.0501317e-003  6.0501317e-003  6.0625360e-003 
 3.5813856e-001  1.2429020e-001  5.4883990e-003 -1.4093913e-003  5.6664720e-003  6.0476419e-003  6.0476419e-003  6.0636965e-003 
 3.9540476e-001  1.2429020e-001  6.1821891e-003 -1.1445901e-003  6.2872530e-003  6.0430756e-003  6.0430756e-003  6.0628406e-003 